LAMMPS data file via write_data, version 29 Oct 2020, timestep = 1000

13 atoms
1 atom types

-5.0 5.0 xlo xhi
-5.0 5.0 ylo yhi
-5.0 5.0 zlo zhi

Masses

1 1

Atoms # atomic

1 1 1.0132226417        0.3329955686        0.1812866397 0 0 0
2 1 0.7255989775       -0.7660449415        0.2388625373 0 0 0
3 1 0.7293356067       -0.2309436666       -0.7649239428 0 0 0
4 1 0.3513618941        0.8291166557       -0.5995702064 0 0 0
5 1 0.3453146118       -0.0366957540        1.0245903005 0 0 0
6 1 0.1140240770        0.9491685999        0.5064104273 0 0 0
7 1 -1.0132240213       -0.3329960305       -0.1812867552 0 0 0
8 1 -0.1140234764       -0.9491689127       -0.5064103454 0 0 0
9 1 -0.3513615244       -0.8291170821        0.5995701458 0 0 0
10 1 -0.3453152548        0.0366956843       -1.0245902691 0 0 0
11 1 -0.7255983925        0.7660457628       -0.2388624662 0 0 0
12 1 -0.7293359733        0.2309438428        0.7649237858 0 0 0
13 1 0.0000008339        0.0000002733        0.0000001488 0 0 0


