units metal
dimension 3
atom_style atomic
atom_modify map array
boundary f f f
region mybox block -5 5 -5 5 -5 5
read_data starting_configuration.lj
Reading data file ...
  orthogonal box = (-5.0000000 -5.0000000 -5.0000000) to (5.0000000 5.0000000 5.0000000)
  1 by 1 by 1 MPI processor grid
  reading atoms ...
  13 atoms
  read_data CPU = 0.001 seconds
mass 1 39.948
velocity all create 78.0 1000 mom yes rot yes dist gaussian
pair_style hybrid lj/cut 4.0
pair_coeff 1 1 lj/cut 0.010375693414116883 1.0
compute S all pressure NULL virial
fix vir all ave/time 1 50 50 c_S[1] c_S[2] c_S[3] c_S[6] c_S[5] c_S[4] file LJ_MD/TEMP/tmp.virial
compute rdf all rdf 100
fix frdf all ave/time 50 29999 1500000 c_rdf[*] file LJ_MD/TEMP/tmp.rdf mode vector
compute pe all pe
fix fpe all ave/time 1 50 50 c_pe file LJ_MD/TEMP/tmp.pe
compute msd all msd com yes
fix fmsd all ave/time 1 50 50 c_msd[4] file LJ_MD/TEMP/tmp.msd
thermo 50
fix l0 all nve langevin 78.0 78.0 1 1000
timestep 0.005
dump 1 all xyz 50 LJ_MD/TEMP/dump.xyz
dump 2 all custom 50 LJ_MD/TEMP/dump.positions_and_forces type id x y z fx fy fz
run 1500000
Neighbor list info ...
  update every 1 steps, delay 10 steps, check yes
  max neighbors/atom: 2000, page size: 100000
  master list distance cutoff = 6
  ghost atom cutoff = 6
  binsize = 3, bins = 4 4 4
  2 neighbor lists, perpetual/occasional/extra = 1 1 0
  (1) pair lj/cut, perpetual
      attributes: half, newton on
      pair build: half/bin/atomonly/newton
      stencil: half/bin/3d
      bin: standard
  (2) compute rdf, occasional, copy from (1)
      attributes: half, newton on
      pair build: copy
      stencil: none
      bin: none
Per MPI rank memory allocation (min/avg/max) = 5.667 | 5.667 | 5.667 Mbytes
Step Temp E_pair E_mol TotEng Press 
       0           78   -0.4599213            0  -0.33893381    129.22984 
      50    18.720276   -0.3677815            0  -0.33874408   -136.11476 
     100    22.039375  -0.37295821            0  -0.33877246   -65.906207 
     150     26.41237  -0.37974312            0  -0.33877431    161.60507 
     200    19.953505  -0.36971838            0  -0.33876807   -106.26257 
     250    20.798596  -0.37103436            0  -0.33877321   -48.591137 
     300    23.791978  -0.37569586            0   -0.3387916    134.72183 
     350    31.132621    -0.387081            0  -0.33879052   -31.646106 
     400    34.935143  -0.39295231            0  -0.33876365   -49.285994 
     450    31.894384  -0.38829515            0  -0.33882308    121.58032 
     500    36.625208  -0.39560394            0  -0.33879379    99.098133 
     550    33.874376  -0.39133974            0  -0.33879646   -289.63135 
     600    40.062635  -0.40097967            0  -0.33883765   -22.193007 
     650    40.952662  -0.40235443            0  -0.33883186   -144.20273 
     700    33.208374   -0.3902559            0  -0.33874567    37.782463 
     750    30.786082  -0.38651431            0  -0.33876135    103.23625 
     800    24.324261  -0.37653068            0  -0.33880079   -119.63922 
     850    43.547335   -0.4063795            0  -0.33883228    84.172879 
     900    26.173914  -0.37936173            0   -0.3387628   -21.560782 
     950     38.62827  -0.39873131            0  -0.33881416   -45.021512 
    1000    29.665454  -0.38477553            0   -0.3387608   -238.33975 
    1050    39.277585   -0.3997067            0  -0.33878239   -85.472021 
    1100    27.617584  -0.38162436            0  -0.33878613   -128.74381 
    1150      30.9806  -0.38682722            0  -0.33877254    41.889653 
    1200    36.391272  -0.39527202            0  -0.33882473    45.085701 
    1250    20.774657  -0.37097279            0  -0.33874877    4.5450477 
    1300    40.252473  -0.40127963            0  -0.33884314    87.481853 
    1350     21.04997  -0.37138453            0  -0.33873346    139.16747 
    1400    34.865197  -0.39285188            0  -0.33877171    17.395538 
    1450    26.487457  -0.37984523            0  -0.33875996   -49.574393 
    1500    29.754332  -0.38491757            0  -0.33876498   -6.6340589 
    1550    20.758956  -0.37096096            0  -0.33876129   -171.96063 
    1600    32.193354  -0.38871402            0  -0.33877821   -144.43229 
    1650     31.53096  -0.38766998            0  -0.33876162   -55.662689 
    1700    23.698917  -0.37553873            0  -0.33877882   -228.33788 
    1750    38.260662  -0.39813107            0  -0.33878413    12.221019 
    1800    28.972223  -0.38373029            0  -0.33879085   -78.671816 
    1850     26.02533  -0.37910964            0  -0.33874118    362.02352 
    1900    27.789974  -0.38187581            0  -0.33877018    421.25046 
    1950    21.211436  -0.37169411            0  -0.33879259     380.6906 
    2000    29.480198  -0.38443953            0  -0.33871215    301.46944 
    2050    29.463106  -0.38452017            0  -0.33881931    -85.66191 
    2100    33.676672  -0.39101602            0   -0.3387794    12.808204 
    2150    29.173734  -0.38403794            0  -0.33878593    65.132536 
    2200    39.917532   -0.4006958            0  -0.33877885   -77.459566 
    2250    25.892529  -0.37892873            0  -0.33876626    -215.1853 
    2300    33.476534  -0.39069757            0  -0.33877139   -59.698616 
    2350    46.735426  -0.41137972            0  -0.33888739    150.81132 
    2400    33.145858  -0.39020081            0  -0.33878754   -34.879512 
    2450    25.061806  -0.37761419            0  -0.33874028   -98.019592 
    2500     34.98283  -0.39304765            0  -0.33878502     27.29675 
    2550    29.327231  -0.38429242            0  -0.33880231    324.76176 
    2600    25.691642  -0.37861665            0  -0.33876579   -102.19736 
    2650     26.96743    -0.380599            0  -0.33876923    133.13395 
    2700    21.439341   -0.3720122            0  -0.33875717   -62.346355 
    2750    25.465885  -0.37826991            0  -0.33876922   -20.524285 
    2800     29.42962  -0.38443067            0  -0.33878175    17.823978 
    2850    23.442907  -0.37513974            0  -0.33877694   -73.460847 
    2900    24.887589  -0.37737358            0   -0.3387699    92.289862 
    2950    23.626813  -0.37541894            0  -0.33877088   -245.14869 
    3000    27.956916  -0.38213702            0  -0.33877244   -113.96125 
    3050    19.168625  -0.36846259            0  -0.33872972    151.75379 
    3100    30.180859  -0.38563291            0  -0.33881872    -53.09281 
    3150    28.416268  -0.38287227            0  -0.33879518   -29.145302 
    3200    23.110694  -0.37461385            0  -0.33876635   -148.38841 
    3250     19.07428  -0.36835384            0  -0.33876731   -196.21945 
    3300    27.892863  -0.38201809            0  -0.33875286    213.96622 
    3350    21.951244  -0.37280941            0  -0.33876036   -16.211605 
    3400    21.990002  -0.37287855            0  -0.33876938   -154.73113 
    3450    37.094065   -0.3963854            0  -0.33884799    20.065867 
    3500    25.176021  -0.37786889            0  -0.33881781    59.287497 
    3550    20.346318  -0.37032777            0  -0.33876815    2.5972112 
    3600    24.728003  -0.37713338            0  -0.33877724   -25.629048 
    3650    26.717097   -0.3801255            0  -0.33868403    323.33439 
    3700    17.204946  -0.36545538            0  -0.33876841   -51.349162 
    3750    17.793296  -0.36636865            0  -0.33876908    132.55178 
    3800     20.86279  -0.37111837            0  -0.33875764   -304.40281 
    3850    28.941221  -0.38368706            0   -0.3387957    129.13102 
    3900    29.464876  -0.38452721            0   -0.3388236    169.34741 
    3950    18.318034  -0.36720126            0  -0.33878776   -119.19709 
    4000    30.116148  -0.38552188            0  -0.33880807    42.692516 
    4050    32.152043  -0.38865754            0  -0.33878581   -64.862296 
    4100    21.668406  -0.37234336            0  -0.33873302   -58.315247 
    4150    16.227937   -0.3639263            0  -0.33875479   -113.71587 
    4200    17.396503  -0.36574879            0   -0.3387647    157.64261 
    4250    27.399724  -0.38128666            0  -0.33878635    57.064276 
    4300    27.330104  -0.38120925            0  -0.33881693    83.312814 
    4350    23.421657  -0.37512539            0  -0.33879555    44.846137 
    4400    13.503834  -0.35965778            0  -0.33871169    143.08148 
    4450     24.18044  -0.37628545            0  -0.33877864   -181.14307 
    4500     31.28803  -0.38730284            0  -0.33877129   -208.21571 
    4550    19.755105  -0.36942298            0  -0.33878041   -65.787484 
    4600    22.374929  -0.37349807            0  -0.33879183   -70.457513 
    4650    25.606564  -0.37852585            0  -0.33880695   -35.852432 
    4700    19.900301  -0.36962563            0  -0.33875784   -2.7760586 
    4750    18.413487  -0.36731887            0  -0.33875731    27.946881 
    4800    12.843042  -0.35865657            0  -0.33873545    13.539885 
    4850    14.459787  -0.36118348            0  -0.33875459    104.29019 
    4900    24.397486  -0.37660353            0  -0.33876006    328.54049 
    4950    17.815071  -0.36642556            0  -0.33879222     134.2118 
    5000    20.883903   -0.3711957            0  -0.33880222    70.181573 
    5050    17.975517  -0.36665712            0  -0.33877491   -91.251457 
    5100    27.379384  -0.38124627            0  -0.33877751   -69.094712 
    5150    16.418381  -0.36424606            0  -0.33877915    96.958915 
    5200    17.050314  -0.36520077            0  -0.33875366    485.57922 
    5250    20.428552  -0.37044794            0  -0.33876077    246.22241 
    5300    19.852062  -0.36956197            0  -0.33876901   -59.059385 
    5350    22.157798  -0.37315327            0  -0.33878382    29.188999 
    5400    22.488025  -0.37364478            0  -0.33876312    -52.09591 
    5450    18.752627  -0.36786636            0  -0.33877875   -48.895224 
    5500    17.434438  -0.36579072            0  -0.33874779    9.3467243 
    5550    21.367721  -0.37192695            0  -0.33878301    34.804453 
    5600     13.09508  -0.35907317            0  -0.33876111    44.702405 
    5650    23.674629  -0.37549156            0  -0.33876933   -51.718289 
    5700     20.24012  -0.37016663            0  -0.33877174    141.02368 
    5750    21.032677  -0.37141319            0  -0.33878895    36.901693 
    5800    17.445092  -0.36582472            0  -0.33876526    127.55596 
    5850    19.773177  -0.36945304            0  -0.33878244   -129.99454 
    5900    19.580587  -0.36914295            0  -0.33877108    -16.34961 
    5950     18.96941  -0.36820013            0  -0.33877627    187.62824 
    6000     17.24718  -0.36549059            0  -0.33873811    318.00416 
    6050    19.343408  -0.36876951            0  -0.33876552      58.7078 
    6100    17.960776  -0.36661886            0  -0.33875951   -16.380278 
    6150    20.848874  -0.37111822            0  -0.33877908   -43.185681 
    6200    17.446168  -0.36578286            0  -0.33872173    335.28951 
    6250    17.378599  -0.36572796            0  -0.33877164   -79.516776 
    6300    23.798353  -0.37568257            0  -0.33876843     1.906533 
    6350    17.240915  -0.36549193            0  -0.33874917    319.94663 
    6400    13.900424   -0.3603147            0  -0.33875345   -86.107172 
    6450    22.047534  -0.37297211            0   -0.3387737    177.42832 
    6500    17.670189   -0.3661655            0  -0.33875688    161.18892 
    6550      26.2161  -0.37947589            0  -0.33881153    120.31119 
    6600    20.191888  -0.37008566            0  -0.33876558   -175.75941 
    6650    19.386812  -0.36884165            0  -0.33877034   -93.735292 
    6700     19.43689  -0.36890267            0  -0.33875369     153.3749 
    6750    17.543961  -0.36599304            0  -0.33878022    22.681761 
    6800    20.823365  -0.37107497            0   -0.3387754    30.065484 
    6850    18.805958  -0.36793156            0  -0.33876123    128.44568 
    6900    18.787045  -0.36791712            0  -0.33877613   -149.53994 
    6950    19.452627  -0.36894321            0  -0.33876982    32.793984 
    7000     22.74075  -0.37405568            0    -0.338782    197.82444 
    7050    11.365575  -0.35640235            0  -0.33877296   -143.73744 
    7100    21.257135  -0.37176116            0  -0.33878876   -87.965661 
    7150    16.991363  -0.36510122            0  -0.33874555    207.20406 
    7200    14.809181  -0.36173269            0  -0.33876185   -98.213399 
    7250     20.95144  -0.37128473            0  -0.33878649   -71.827783 
    7300    15.288751  -0.36247356            0  -0.33875884    183.67113 
    7350    18.458791  -0.36741572            0  -0.33878389   -39.908981 
    7400     19.69573  -0.36930805            0  -0.33875757   -119.92131 
    7450    15.443095  -0.36272269            0  -0.33876857   -111.15636 
    7500    23.720395  -0.37557934            0  -0.33878612   -49.889428 
    7550    28.761821  -0.38340068            0  -0.33878759   -18.845031 
    7600     27.07903  -0.38078106            0  -0.33877819   -35.481129 
    7650    26.745958  -0.38029411            0  -0.33880787    26.059553 
    7700     28.42269  -0.38289227            0  -0.33880522   -51.987315 
    7750    22.447195  -0.37358341            0  -0.33876508   -77.333189 
    7800    35.368626  -0.39368914            0   -0.3388281   -103.58658 
    7850     31.04673  -0.38698611            0  -0.33882885   -152.99822 
    7900     27.68204  -0.38172544            0  -0.33878723   -114.38211 
    7950    21.743449  -0.37247501            0  -0.33874828    16.681658 
    8000    23.324969   -0.3749624            0  -0.33878254   -158.50894 
    8050    22.020257  -0.37293268            0  -0.33877658    -197.5717 
    8100    26.403934  -0.37973521            0  -0.33877949    141.22427 
    8150    24.120373  -0.37617636            0  -0.33876272    2.9844677 
    8200    28.944208  -0.38367665            0  -0.33878066   -150.29108 
    8250    17.682104  -0.36616361            0  -0.33873652    138.53322 
    8300    34.608862  -0.39248617            0  -0.33880361    465.74527 
    8350    23.572718  -0.37531459            0  -0.33875043    113.64417 
    8400    28.953681  -0.38369655            0  -0.33878587   -43.329318 
    8450    35.576171  -0.39396351            0  -0.33878054    253.98337 
    8500    27.706725  -0.38175557            0  -0.33877907   -160.33749 
    8550    29.885813  -0.38512697            0  -0.33877043   -50.610108 
    8600     37.74228  -0.39733222            0  -0.33878935    250.20086 
    8650    33.164417  -0.39022858            0  -0.33878653    34.732064 
    8700    26.905837  -0.38046678            0  -0.33873255    52.879589 
    8750    33.768743  -0.39119363            0   -0.3388142   -131.05209 
    8800    36.738398  -0.39577141            0  -0.33878569   -91.922851 
    8850    20.512803  -0.37059507            0  -0.33877722   -185.71473 
    8900    41.337849  -0.40296043            0  -0.33884039    -8.846112 
    8950    30.461724  -0.38601992            0  -0.33877008   -56.108339 
    9000    38.654356  -0.39874773            0  -0.33879012   -187.05036 
    9050    30.113852  -0.38549632            0  -0.33878607    59.402568 
    9100    36.515262  -0.39545685            0  -0.33881723   -50.265126 
    9150    26.036404  -0.37916745            0  -0.33878181   -37.125575 
    9200    27.864517  -0.38194988            0  -0.33872862    283.91069 
    9250    23.921914  -0.37587095            0  -0.33876515   -60.570421 
    9300    21.171922  -0.37159288            0  -0.33875265    42.602344 
    9350    32.466356  -0.38915235            0  -0.33879308     52.71341 
    9400    24.057288  -0.37611936            0  -0.33880357   -88.864237 
    9450     18.22278  -0.36705666            0  -0.33879091   -112.17915 
    9500    24.709417  -0.37714408            0  -0.33881677    30.456744 
    9550    25.721609  -0.37868982            0  -0.33879248    194.41209 
    9600     26.01775  -0.37915986            0  -0.33880316   -43.826387 
    9650    19.332504  -0.36877109            0  -0.33878402   -110.20716 
    9700    33.156885  -0.39024266            0  -0.33881229    -60.50401 
    9750    28.892264  -0.38361143            0  -0.33879602    108.32489 
    9800    39.300119  -0.39975638            0  -0.33879711    143.08818 
    9850    39.648123  -0.40028138            0  -0.33878231   -77.738253 
    9900    27.704578  -0.38177929            0  -0.33880612    4.8901556 
    9950    31.789656  -0.38805837            0  -0.33874874    -59.65245 
   10000    29.235243    -0.384139            0  -0.33879158    -203.5471 
   10050    40.089822  -0.40096186            0  -0.33877767    11.011677 
   10100    35.308954  -0.39356724            0  -0.33879875   -13.684969 
   10150     37.51645  -0.39700749            0  -0.33881491   -196.89925 
   10200    28.298793  -0.38266724            0  -0.33877237   -21.179904 
   10250    36.433188  -0.39529457            0  -0.33878226    49.051299 
   10300    34.349271  -0.39208696            0  -0.33880706    109.81897 
   10350    26.373987  -0.37965368            0  -0.33874442   -49.841641 
   10400    35.556134  -0.39394602            0  -0.33879413    185.10911 
   10450    33.849622  -0.39129754            0  -0.33879266    60.095213 
   10500    31.573939  -0.38776124            0  -0.33878622   -27.374284 
   10550    33.584868  -0.39091944            0  -0.33882522   -18.442382 
   10600    33.180264     -0.39022            0  -0.33875337    45.088572 
   10650    32.557031  -0.38929481            0  -0.33879489   -220.81787 
   10700    35.080696  -0.39320213            0   -0.3387877    -272.6628 
   10750    36.249584  -0.39501961            0   -0.3387921    -151.9389 
   10800     31.67963  -0.38789559            0  -0.33875662    249.05818 
   10850    30.113281  -0.38549395            0  -0.33878459   -26.563186 
   10900    28.490246   -0.3829455            0  -0.33875366    56.918636 
   10950    27.952966  -0.38212476            0  -0.33876631    -55.77359 
   11000    39.503551  -0.40016483            0  -0.33889002    222.56471 
   11050    32.787723  -0.38968531            0  -0.33882756    295.33119 
   11100    31.752541  -0.38802849            0  -0.33877644    157.24669 
   11150    27.360766  -0.38122478            0   -0.3387849    57.367968 
   11200    26.033584  -0.37914454            0  -0.33876328   -217.57533 
   11250    31.059054  -0.38686974            0  -0.33869336    118.69952 
   11300    31.172211  -0.38715003            0  -0.33879814    31.574773 
   11350    37.512324   -0.3970442            0  -0.33885802    225.64963 
   11400    28.762415  -0.38339488            0  -0.33878088   -3.6200363 
   11450     31.51373  -0.38766922            0  -0.33878759     -150.359 
   11500    31.369682  -0.38739083            0  -0.33873264    230.01256 
   11550    26.769942  -0.38028125            0  -0.33875781    34.177237 
   11600    29.807896   -0.3850175            0  -0.33878182    11.617615 
   11650      33.4133    -0.390606            0   -0.3387779    47.566096 
   11700    34.808877  -0.39280766            0  -0.33881486   -61.633775 
   11750    33.434966  -0.39065014            0  -0.33878844    3.9375996 
   11800     27.67582  -0.38168806            0  -0.33875949    165.26238 
   11850    33.469116   -0.3907308            0  -0.33881612    44.752726 
   11900    38.558978  -0.39860718            0  -0.33879751    41.698104 
   11950    20.333166  -0.37029037            0  -0.33875115   -172.16636 
   12000    28.905579  -0.38364944            0  -0.33881337    113.21631 
   12050    31.429594  -0.38750472            0  -0.33875359     189.4101 
   12100    39.466184  -0.40001854            0  -0.33880168   -218.66435 
   12150    29.000346  -0.38375451            0  -0.33877145   -1.6302517 
   12200    37.609565  -0.39717919            0  -0.33884218    93.674447 
   12250    28.052395  -0.38227711            0  -0.33876443   -187.50164 
   12300    42.815259  -0.40523612            0  -0.33882444    105.69003 
   12350    29.975841  -0.38527223            0  -0.33877605    5.1124755 
   12400    35.017725  -0.39309491            0  -0.33877816   -140.86242 
   12450    32.560527  -0.38927779            0  -0.33877245   -248.55604 
   12500    41.824997  -0.40369425            0  -0.33881859   -188.61679 
   12550    42.195343  -0.40428419            0  -0.33883407   -22.914931 
   12600    27.530324  -0.38148792            0  -0.33878504   -236.95362 
   12650    33.129294   -0.3901484            0  -0.33876083    170.45811 
   12700    31.265696  -0.38726583            0  -0.33876893   -87.600102 
   12750    34.777344  -0.39275343            0  -0.33880954   -134.92944 
   12800    30.341121  -0.38588081            0  -0.33881804    65.426593 
   12850    31.452534  -0.38755516            0  -0.33876845    118.38399 
   12900    33.036317  -0.39000784            0  -0.33876449    216.08116 
   12950    29.370055  -0.38435739            0  -0.33880086    156.96836 
   13000    21.594388  -0.37222785            0  -0.33873233   -45.572537 
   13050    41.566768  -0.40325435            0  -0.33877923   -14.081346 
   13100    23.841192  -0.37573903            0  -0.33875844   -141.99692 
   13150    23.971958  -0.37593465            0  -0.33875122    119.12044 
   13200    25.079647  -0.37768408            0  -0.33878249    284.95757 
   13250    35.941853  -0.39454111            0  -0.33879092   -3.6570817 
   13300    28.508952  -0.38299069            0  -0.33876983   -170.03018 
   13350    30.697923  -0.38635661            0  -0.33874039   -128.02115 
   13400    35.012139  -0.39309506            0  -0.33878697   -84.706673 
   13450    37.371963  -0.39675006            0  -0.33878159    112.76093 
   13500    27.531843  -0.38147382            0  -0.33876857    14.673287 
   13550    31.834304  -0.38815867            0  -0.33877979   -44.059277 
   13600    40.027573  -0.40087516            0  -0.33878752   -4.3672849 
   13650    22.356868   -0.3734468            0  -0.33876857   -41.898802 
   13700    37.870461  -0.39750868            0  -0.33876698    377.98101 
   13750    32.380446  -0.38900186            0  -0.33877585    -75.44034 
   13800    27.146347  -0.38090685            0  -0.33879956   -190.39866 
   13850    32.131422  -0.38862923            0  -0.33878948   -167.39347 
   13900    35.553658  -0.39393614            0  -0.33878809    83.352488 
   13950    29.826367  -0.38505628            0  -0.33879195    162.02876 
   14000    25.072561  -0.37768463            0  -0.33879404   -1.4945235 
   14050    27.435819  -0.38135172            0  -0.33879542    27.000227 
   14100    20.080281  -0.36992299            0  -0.33877603   -33.336967 
   14150    19.891497  -0.36962842            0  -0.33877429   -58.501807 
   14200    28.007755  -0.38224375            0  -0.33880031    76.409698 
   14250    21.398711   -0.3719367            0   -0.3387447    177.32864 
   14300    30.970239  -0.38686089            0  -0.33882228   -36.969677 
   14350    47.937908  -0.41313615            0  -0.33877862    -122.9856 
   14400    24.076924  -0.37610673            0  -0.33876048   -148.36858 
   14450     39.88782  -0.40069716            0   -0.3388263    80.610683 
   14500    36.604735  -0.39556626            0  -0.33878786   -190.98365 
   14550    21.909293  -0.37273723            0  -0.33875325   -277.38596 
   14600    47.970193   -0.4132236            0  -0.33881599   -24.840007 
   14650    39.148418  -0.39952758            0  -0.33880361   -27.945427 
   14700    34.005869  -0.39150333            0  -0.33875608    -199.3986 
   14750    24.695805  -0.37706213            0  -0.33875594   -281.35726 
   14800    40.552154   -0.4017042            0  -0.33880288   -158.46505 
   14850    33.651916  -0.39098805            0  -0.33878983    1.3434145 
   14900    32.310108    -0.388935            0  -0.33881808    21.088392 
   14950    20.745274  -0.37091866            0  -0.33874022   -32.498418 
   15000    25.340992  -0.37809605            0  -0.33878908   -22.238239 
   15050    22.791022  -0.37412756            0  -0.33877591    -18.05915 
   15100    26.999131  -0.38065661            0  -0.33877767   -176.32425 
   15150    20.811233  -0.37103134            0  -0.33875058   -121.75853 
   15200    34.913269  -0.39293875            0  -0.33878402    12.542258 
   15250    22.258187  -0.37331141            0  -0.33878625   -15.510309 
   15300    24.664064  -0.37702325            0  -0.33876629   -25.534909 
   15350    18.989027  -0.36820776            0  -0.33875347    61.343654 
   15400    35.041084  -0.39314241            0  -0.33878942   -106.10907 
   15450    33.534158  -0.39081052            0  -0.33879496    11.598221 
   15500    30.602643  -0.38622865            0  -0.33876023   -49.075331 
   15550    34.271982  -0.39200102            0  -0.33884101    24.859964 
   15600    28.923373  -0.38360856            0  -0.33874488    4.4878757 
   15650    28.858937  -0.38354147            0  -0.33877775   -50.829837 
   15700    38.059596  -0.39783584            0  -0.33880077    127.81201 
   15750    24.918357  -0.37740859            0  -0.33875718    165.24856 
   15800    30.110901  -0.38550689            0  -0.33880122    31.540023 
   15850    31.049502  -0.38693984            0  -0.33877828   -81.900123 
   15900    29.470874  -0.38449334            0  -0.33878043    24.575931 
   15950    29.875438   -0.3851702            0  -0.33882976    154.55805 
   16000    23.805907  -0.37571817            0  -0.33879231   -39.062387 
   16050    25.462832   -0.3782964            0  -0.33880045   -76.072261 
   16100    20.278031  -0.37020509            0   -0.3387514    113.83605 
   16150    19.083097  -0.36837177            0  -0.33877157   -224.63304 
   16200    33.389901  -0.39058111            0  -0.33878931   -53.179136 
   16250    16.547506  -0.36441397            0  -0.33874678     111.0192 
   16300    30.847203   -0.3866698            0  -0.33882203   -3.9493176 
   16350    26.392177  -0.37972037            0  -0.33878289    94.037726 
   16400    22.803138  -0.37415118            0  -0.33878074   -173.64839 
   16450    30.767861  -0.38651081            0  -0.33878611   -139.45879 
   16500    29.850196  -0.38510628            0    -0.338805   -74.370287 
   16550    20.544947  -0.37062519            0  -0.33875748   -151.08603 
   16600    31.912946  -0.38828371            0  -0.33878284    30.918882 
   16650    29.230324  -0.38413873            0  -0.33879894   -74.958328 
   16700    13.733464   -0.3600501            0  -0.33874782     37.98047 
   16750    26.059205  -0.37918912            0  -0.33876813    89.653809 
   16800    22.018051  -0.37293497            0  -0.33878229    35.435369 
   16850     27.30047  -0.38114053            0  -0.33879418   -114.87278 
   16900    20.866898  -0.37113595            0  -0.33876885   -131.57089 
   16950    26.219039  -0.37945692            0    -0.338788    -147.7383 
   17000    26.668675   -0.3801457            0  -0.33877934    -94.66571 
   17050    21.464335  -0.37203675            0  -0.33874295    119.69658 
   17100    30.543886  -0.38620359            0  -0.33882631    27.164599 
   17150    42.333523     -0.40448            0  -0.33881555    161.22836 
   17200    28.744043  -0.38340281            0   -0.3388173   -5.1365976 
   17250    34.218664  -0.39188305            0  -0.33880573    106.55358 
   17300    37.200129   -0.3964692            0  -0.33876727    76.227801 
   17350     34.83125  -0.39280603            0  -0.33877852   -15.389372 
   17400    22.008779   -0.3729007            0   -0.3387624   -134.53664 
   17450    40.741548  -0.40200301            0  -0.33880791   -103.50966 
   17500    34.284771  -0.39198482            0  -0.33880497   -12.099517 
   17550    24.452098  -0.37670748            0   -0.3387793    54.729056 
   17600    31.788802   -0.3880801            0   -0.3387718    154.52487 
   17650    44.780675  -0.40830313            0  -0.33884285   -60.936424 
   17700    22.486191  -0.37364709            0  -0.33876827   -151.52946 
   17750    22.448383  -0.37357992            0  -0.33875975   -172.41281 
   17800      56.0494  -0.42572521            0  -0.33878577   -50.695873 
   17850    21.946692  -0.37280512            0  -0.33876313   -182.00981 
   17900    34.309433  -0.39201895            0  -0.33880084   -206.51527 
   17950    44.392988  -0.40765145            0  -0.33879252    81.484371 
   18000    39.283649  -0.39972674            0  -0.33879302    -29.31019 
   18050    28.704013  -0.38328777            0  -0.33876436   -344.53665 
   18100    43.629788  -0.40643904            0  -0.33876393   -292.77843 
   18150    20.828502  -0.37106408            0  -0.33875654   -103.11434 
   18200    28.297619  -0.38263779            0  -0.33874474    109.05667 
   18250    18.671734  -0.36770813            0    -0.338746   -80.426484 
   18300    28.257289  -0.38260557            0  -0.33877507    142.87715 
   18350    23.604877  -0.37539891            0  -0.33878488    133.03495 
   18400    42.217937  -0.40425093            0  -0.33876577     58.38326 
   18450    21.915962  -0.37274333            0    -0.338749    75.410593 
   18500    34.372223  -0.39210999            0  -0.33879449    -22.25764 
   18550    35.043803  -0.39314449            0  -0.33878729   -231.69541 
   18600    35.524907   -0.3939131            0  -0.33880965   -219.00949 
   18650    33.155769  -0.39022185            0  -0.33879322      223.328 
   18700    35.772985  -0.39429164            0  -0.33880338    165.97117 
   18750    27.269857  -0.38106821            0  -0.33876934    -190.2426 
   18800    39.282281   -0.3997569            0   -0.3388253   -176.89727 
   18850    35.394486  -0.39370304            0  -0.33880189    177.86189 
   18900    30.987376  -0.38681383            0  -0.33874864    17.938869 
   18950    33.771119  -0.39112848            0  -0.33874536   -87.547995 
   19000    32.187943  -0.38867207            0  -0.33874466    207.71396 
   19050    19.217587  -0.36856225            0  -0.33875343    -93.38451 
   19100    23.616092  -0.37540535            0  -0.33877392    220.59356 
   19150    29.368129  -0.38436747            0  -0.33881392     87.30801 
   19200    38.692196  -0.39883566            0  -0.33881936    213.66702 
   19250      31.8361   -0.3881448            0  -0.33876313    -121.7887 
   19300    32.831909  -0.38967455            0  -0.33874826   -60.274192 
   19350    33.969654  -0.39150853            0  -0.33881746   -138.46511 
   19400    34.927944  -0.39297007            0  -0.33879258    186.63781 
   19450    31.995639  -0.38839754            0  -0.33876841   -100.37642 
   19500    34.074731  -0.39165292            0  -0.33879887   -95.476062 
   19550    29.473212  -0.38450073            0  -0.33878419   -156.70287 
   19600    34.769241  -0.39270904            0  -0.33877772    127.91558 
   19650    24.768275  -0.37719843            0  -0.33877982    290.40281 
   19700    35.709837  -0.39419093            0  -0.33880063    90.628315 
   19750    27.019708  -0.38071197            0  -0.33880111   -116.22362 
   19800    39.605136  -0.40022061            0  -0.33878822   -15.851047 
   19850    31.602139  -0.38781021            0  -0.33879145    9.4852791 
   19900    15.438502  -0.36270887            0  -0.33876187    202.16431 
   19950    27.863643  -0.38197096            0  -0.33875106    202.29908 
   20000    23.429004  -0.37508988            0  -0.33874864   -51.457261 
   20050    44.238004  -0.40744859            0  -0.33883006    33.583982 
   20100    27.547341  -0.38151835            0  -0.33878907   -65.658167 
   20150    32.427008   -0.3890749            0  -0.33877666   -148.37982 
   20200    34.361647  -0.39205252            0  -0.33875343   -280.65014 
   20250     29.81162  -0.38499677            0  -0.33875532    20.579229 
   20300    38.117529   -0.3979297            0  -0.33880477    129.06421 
   20350    17.722298  -0.36623922            0  -0.33874978    132.23446 
   20400    51.115597  -0.41814422            0   -0.3388577   -119.37826 
   20450    38.382578  -0.39837613            0  -0.33884008    3.5722709 
   20500    28.275322  -0.38263292            0  -0.33877446   -237.05093 
   20550     30.06473  -0.38536867            0  -0.33873462  -0.60409026 
   20600    43.148778   -0.4057396            0  -0.33881059    54.913528 
   20650    30.305826   -0.3858059            0  -0.33879787   -262.51178 
   20700    28.760144  -0.38335919            0   -0.3387487    377.96353 
   20750    38.154577  -0.39797603            0  -0.33879364    75.557728 
   20800    26.431241   -0.3797909            0  -0.33879283     -91.4189 
   20850    32.380325  -0.38897232            0   -0.3387465    46.665389 
   20900    39.611603  -0.40030211            0  -0.33885969   -57.171133 
   20950    31.226361  -0.38720637            0  -0.33877048   -158.71228 
   21000    30.087257  -0.38543874            0  -0.33876974    171.78981 
   21050    45.566598  -0.40953158            0  -0.33885224   -88.136914 
   21100    20.589993  -0.37068918            0   -0.3387516   -230.30831 
   21150     29.55391  -0.38459189            0  -0.33875018   -74.355698 
   21200    46.302704   -0.4106142            0  -0.33879307   -97.017997 
   21250    28.386597  -0.38279178            0  -0.33876071   -144.45431 
   21300    42.478018  -0.40471797            0   -0.3388294    -52.21783 
   21350    34.301005  -0.39198529            0  -0.33878026    -20.51274 
   21400    27.913626  -0.38209113            0   -0.3387937   -193.92713 
   21450    27.834605  -0.38192921            0  -0.33875435   -176.78417 
   21500    44.380727  -0.40769658            0  -0.33885667    121.46451 
   21550    29.566644  -0.38469617            0  -0.33883471    73.800784 
   21600    32.282433  -0.38875044            0  -0.33867645    316.22801 
   21650    24.120517  -0.37611289            0  -0.33869903   -83.253588 
   21700    37.009887  -0.39619939            0  -0.33879255    -131.1448 
   21750    29.368683  -0.38436687            0  -0.33881246    211.36541 
   21800     30.44734  -0.38603639            0  -0.33880886   -2.4554366 
   21850    32.578577  -0.38931382            0  -0.33878049    150.87225 
   21900    26.509346  -0.37990408            0  -0.33878486    132.47077 
   21950    27.464392   -0.3813921            0  -0.33879148   -162.70892 
   22000    24.792088  -0.37725303            0  -0.33879749   -149.55093 
   22050    27.892559  -0.38204879            0  -0.33878403   -42.079404 
   22100    26.123317  -0.37932021            0  -0.33879977    81.615101 
   22150    22.456375  -0.37364277            0   -0.3388102    34.437087 
   22200    27.717459  -0.38174788            0  -0.33875472   -83.050102 
   22250    41.416199  -0.40302418            0  -0.33878262   -198.21835 
   22300    32.658318  -0.38942778            0  -0.33877075   -269.66506 
   22350     35.46451  -0.39377464            0  -0.33876487    40.573328 
   22400    26.766534   -0.3802593            0  -0.33874115    324.25898 
   22450    22.520055   -0.3737035            0  -0.33877216   -112.46222 
   22500    30.000069   -0.3853441            0  -0.33881034    34.775398 
   22550    33.541597  -0.39085036            0  -0.33882326    278.15803 
   22600    27.317882  -0.38116232            0  -0.33878896    9.9203352 
   22650    33.114266  -0.39012717            0  -0.33876292    47.751089 
   22700    33.168846  -0.39021244            0  -0.33876352    12.364513 
   22750    32.518956  -0.38922495            0  -0.33878409   -183.64403 
   22800    35.839287  -0.39440383            0  -0.33881273   -98.237394 
   22850    30.840476   -0.3866584            0  -0.33882107    230.05782 
   22900    40.176485  -0.40112685            0  -0.33880823   -184.56596 
   22950    36.505377  -0.39543348            0  -0.33880919   -76.893911 
   23000    44.370774  -0.40765613            0  -0.33883166   -70.274392 
   23050    32.084387   -0.3885738            0  -0.33880701   -131.44804 
   23100    33.524042  -0.39079104            0  -0.33879117   -126.13408 
   23150      34.7759   -0.3927004            0  -0.33875874   -99.207042 
   23200    37.545691  -0.39702926            0  -0.33879132  -0.42001324 
   23250    20.976848  -0.37130914            0  -0.33877149   -44.761175 
   23300    15.513491   -0.3628242            0  -0.33876089    287.59795 
   23350    21.617965  -0.37231708            0  -0.33878499   -47.090042 
   23400    21.765087  -0.37254312            0  -0.33878282    101.91678 
   23450    27.253902  -0.38102308            0  -0.33874896    32.679311 
   23500    22.367207  -0.37347426            0     -0.33878   -22.897698 
   23550    23.071685  -0.37457182            0  -0.33878483    19.891684 
   23600    33.538179  -0.39079002            0  -0.33876822    151.29412 
   23650     15.33009  -0.36253796            0  -0.33875912     9.607609 
   23700    26.561217  -0.37998864            0  -0.33878896   -18.807603 
   23750    25.727756  -0.37871964            0  -0.33881276    84.925298 
   23800    33.481956  -0.39073801            0  -0.33880342   -17.433822 
   23850    20.007458  -0.36980033            0  -0.33876632    -101.7106 
   23900    29.134438  -0.38395254            0  -0.33876148   -221.69858 
   23950    19.930479  -0.36969107            0  -0.33877647   -212.35825 
   24000    37.996709  -0.39773963            0   -0.3388021     33.04076 
   24050    23.579545  -0.37534392            0  -0.33876918   -96.036951 
   24100    29.541492  -0.38462338            0  -0.33880093   -22.898181 
   24150    23.601261    -0.375352            0  -0.33874357    75.261007 
   24200     21.76189  -0.37252773            0  -0.33877239    -133.7927 
   24250     28.66869  -0.38329131            0  -0.33882268    110.85362 
   24300    27.834291  -0.38195461            0  -0.33878023     23.32579 
   24350     25.01347  -0.37756982            0  -0.33877088   -90.069861 
   24400    30.222236  -0.38567377            0   -0.3387954     33.51498 
   24450    28.253603  -0.38260408            0  -0.33877931  -0.20337271 
   24500    39.874929   -0.4006398            0  -0.33878893    26.939039 
   24550     25.18157  -0.37782073            0  -0.33876105   -175.70038 
   24600    33.328208  -0.39050139            0  -0.33880528    15.529692 
   24650    27.530933  -0.38148421            0  -0.33878038   -76.962785 
   24700    37.008239  -0.39619984            0  -0.33879556   -2.7501604 
   24750    29.326934  -0.38428877            0  -0.33879913   -69.858604 
   24800    37.717875   -0.3972806            0  -0.33877558   -50.723552 
   24850    32.750352  -0.38962306            0  -0.33882328    39.152218 
   24900    35.037727  -0.39313021            0  -0.33878243    228.14784 
   24950    24.703411  -0.37709824            0  -0.33878024   -155.22996 
   25000    30.875257  -0.38668666            0  -0.33879538    -32.59522 
   25050    33.504367  -0.39075852            0  -0.33878916     83.19861 
   25100    48.765871  -0.41442003            0  -0.33877823    9.4038476 
   25150    20.551833  -0.37066085            0  -0.33878245   -285.31172 
   25200    38.184944  -0.39801647            0  -0.33878697   -86.510147 
   25250    26.018448  -0.37914248            0   -0.3387847    172.28878 
   25300    25.502648  -0.37838097            0  -0.33882326    310.01237 
   25350    29.171554  -0.38404965            0  -0.33880102     140.2352 
   25400    41.027401  -0.40248706            0  -0.33884857   -157.15968 
   25450    35.272347  -0.39350303            0  -0.33879133   -87.663706 
   25500    26.697177  -0.38018543            0  -0.33877486   -24.155129 
   25550    25.590758  -0.37843663            0  -0.33874225    9.1030572 
   25600    25.920501  -0.37899504            0  -0.33878919   -170.91359 
   25650     24.61519  -0.37692466            0  -0.33874351    153.96281 
   25700    18.440192  -0.36738083            0  -0.33877785    94.567726 
   25750    31.186296  -0.38719968            0  -0.33882593    488.97083 
   25800    19.295605  -0.36869872            0  -0.33876888    40.480154 
   25850    28.131533  -0.38241865            0  -0.33878322   -47.175717 
   25900    21.944723  -0.37279463            0  -0.33875569   -120.34966 
   25950    24.174839  -0.37625829            0  -0.33876017   -185.43977 
   26000    42.099954  -0.40411289            0  -0.33881073   -119.98711 
   26050    39.214572  -0.39963965            0  -0.33881307    75.439119 
   26100    31.247537  -0.38727357            0  -0.33880483    60.464833 
   26150    26.607884  -0.38007007            0    -0.338798    123.75605 
   26200    28.513214  -0.38306258            0  -0.33883511    131.75199 
   26250    37.646787  -0.39718484            0  -0.33879009   -171.62364 
   26300    29.134874  -0.38397459            0  -0.33878285    -264.9472 
   26350    39.193416  -0.39957476            0    -0.338781   -32.158171 
   26400    26.696728  -0.38018438            0  -0.33877451    186.51403 
   26450    31.385775  -0.38749344            0  -0.33881028   -15.420259 
   26500    29.590847  -0.38465548            0  -0.33875647   -42.963461 
   26550    36.769917  -0.39584832            0  -0.33881371   -43.853976 
   26600     26.01697    -0.379123            0  -0.33876751   -83.884087 
   26650    39.666479  -0.40034321            0  -0.33881568    101.69306 
   26700    36.112101  -0.39478189            0  -0.33876762    41.017662 
   26750    21.385933  -0.37192446            0  -0.33875227   -17.480986 
   26800      39.8729  -0.40059691            0  -0.33874919     54.73366 
   26850    21.568849  -0.37222658            0  -0.33877067    -203.7541 
   26900    24.752709  -0.37715298            0  -0.33875851   -23.976745 
   26950    44.097953  -0.40721077            0  -0.33880948     446.2934 
   27000    19.962686  -0.36967729            0  -0.33871274    206.71138 
   27050    35.383343  -0.39364523            0  -0.33876136   -61.453596 
   27100    27.958443  -0.38213174            0  -0.33876479   -131.58516 
   27150    22.751701  -0.37404915            0   -0.3387585    28.141761 
   27200    38.687359  -0.39878643            0  -0.33877763    692.22539 
   27250    30.115873  -0.38552718            0   -0.3388138    34.080002 
   27300    33.417523  -0.39060769            0  -0.33877304   -142.90822 
   27350    31.798214  -0.38809606            0  -0.33877315   -62.360408 
   27400    30.104913   -0.3854741            0  -0.33877772   -97.289955 
   27450    34.413608  -0.39215158            0  -0.33877189   -10.956933 
   27500    31.989218  -0.38841751            0  -0.33879834    78.235627 
   27550    36.763444  -0.39584308            0   -0.3388185   -114.09574 
   27600     32.56175  -0.38928688            0  -0.33877964   -219.66058 
   27650    33.932198   -0.3914401            0  -0.33880713    218.42616 
   27700    28.229761  -0.38253572            0  -0.33874792    162.97157 
   27750    26.807128  -0.38039181            0  -0.33881069   -177.94258 
   27800    35.094577  -0.39321738            0  -0.33878142    356.93712 
   27850    31.591654  -0.38778246            0  -0.33877996    150.23195 
   27900    26.779982  -0.38028262            0  -0.33874361   -67.672467 
   27950    37.970044  -0.39774516            0    -0.338849    50.918434 
   28000     17.78649  -0.36634102            0  -0.33875201    245.10925 
   28050    30.215754  -0.38564719            0  -0.33877888   -6.9766622 
   28100    33.134112  -0.39016222            0  -0.33876718   -275.35564 
   28150    24.832691  -0.37726535            0  -0.33874683     135.2208 
   28200     35.66006  -0.39415766            0  -0.33884457    329.56285 
   28250    36.097448  -0.39478461            0  -0.33879307    -49.77901 
   28300    19.968128  -0.36972672            0  -0.33875373   -100.93928 
   28350    41.880978  -0.40376456            0  -0.33880207    496.09111 
   28400    28.402163  -0.38287379            0  -0.33881858    236.52299 
   28450    34.025365  -0.39151925            0  -0.33874177     -6.44295 
   28500    29.512335  -0.38459474            0  -0.33881752   -76.233014 
   28550    32.233032  -0.38882536            0    -0.338828    124.50322 
   28600    29.584414  -0.38467186            0  -0.33878283   -307.61727 
   28650       35.608  -0.39401947            0  -0.33878713   -245.94237 
   28700    38.000025  -0.39773759            0  -0.33879492    132.24197 
   28750    19.219273  -0.36853428            0  -0.33872285    391.26365 
   28800    31.196129  -0.38718907            0  -0.33880007    210.37694 
   28850    38.498916  -0.39846333            0  -0.33874682   -332.10788 
   28900     21.99654  -0.37286201            0   -0.3387427    -419.2514 
   28950    49.253824  -0.41521585            0  -0.33881717   -178.51474 
   29000    32.774402  -0.38964434            0  -0.33880725   -134.90322 
   29050    27.677569  -0.38168791            0  -0.33875663    140.99356 
   29100     26.60111  -0.38003942            0  -0.33877786    309.87767 
   29150    40.347196  -0.40140108            0  -0.33881767    102.34327 
   29200    36.969922   -0.3961465            0  -0.33880165     -109.501 
   29250    34.447731  -0.39222044            0  -0.33878781   -150.64576 
   29300    29.271145  -0.38422729            0  -0.33882419     316.7521 
   29350    32.919859  -0.38980802            0  -0.33874531    148.32829 
   29400     26.68022  -0.38016275            0  -0.33877848    117.40253 
   29450    39.574812  -0.40016992            0  -0.33878457    114.89771 
   29500     26.08616  -0.37922461            0  -0.33876179   -22.639699 
   29550    34.659213  -0.39256121            0  -0.33880055     -178.403 
   29600    37.153609  -0.39639885            0  -0.33876908    104.78651 
   29650    26.314414  -0.37957988            0  -0.33876302   -62.954469 
   29700    32.478615  -0.38915641            0  -0.33877813   -133.83032 
   29750    36.942557  -0.39615488            0  -0.33885248    110.08511 
   29800    37.709273  -0.39728371            0  -0.33879203   -142.33855 
   29850    29.898926  -0.38518055            0  -0.33880367   -204.54706 
   29900    34.408939  -0.39213521            0  -0.33876276      -17.499 
   29950    28.411925  -0.38285853            0  -0.33878818   -118.06753 
   30000    41.762757  -0.40359011            0  -0.33881099    207.78231 
   30050    32.626377   -0.3894298            0  -0.33882231   -170.21363 
   30100    19.178529  -0.36848989            0  -0.33874166   -81.718721 
   30150    35.301198  -0.39350004            0  -0.33874358    272.99811 
   30200    33.884467  -0.39132102            0  -0.33876209   -83.759221 
   30250    29.346992  -0.38427685            0  -0.33875609   -239.09554 
   30300    36.628496  -0.39560688            0  -0.33879163    129.36186 
   30350    25.880886   -0.3789203            0  -0.33877589    87.845416 
   30400    34.154858     -0.39176            0  -0.33878166    111.06664 
   30450    30.371748  -0.38594009            0  -0.33882981    100.20467 
   30500    34.022162  -0.39159026            0  -0.33881775   -24.739821 
   30550    34.044249  -0.39160177            0    -0.338795    -277.3426 
   30600    28.176613  -0.38247042            0  -0.33876506   -40.330851 
   30650    34.559589  -0.39238471            0  -0.33877858    272.44536 
   30700    31.614488  -0.38780538            0  -0.33876746    101.62948 
   30750    35.146171  -0.39331116            0  -0.33879517   -88.905291 
   30800    26.063465  -0.37921509            0  -0.33878748    54.688337 
   30850    19.691669  -0.36925312            0  -0.33870894    237.16199 
   30900    37.342207  -0.39671442            0  -0.33879211   -4.1466002 
   30950    33.292718  -0.39044661            0  -0.33880555   -33.432208 
   31000    47.410699   -0.4123902            0  -0.33885043    59.274805 
   31050      22.6533   -0.3739192            0  -0.33878118     -104.708 
   31100    38.365961  -0.39830938            0  -0.33879911   -4.6607984 
   31150    35.904116  -0.39444223            0  -0.33875058   -26.178242 
   31200    34.660099  -0.39253093            0   -0.3387689   -177.26289 
   31250    28.544102  -0.38304677            0  -0.33877139   -129.21962 
   31300    20.374917  -0.37036255            0  -0.33875858    -121.6205 
   31350     23.91551  -0.37587031            0  -0.33877444   -78.075762 
   31400    23.625311   -0.3754073            0  -0.33876157    140.18783 
   31450    16.734135  -0.36472012            0  -0.33876344    196.37702 
   31500    28.608447  -0.38315708            0   -0.3387819    -17.73381 
   31550    27.018996  -0.38067231            0  -0.33876256   -119.17011 
   31600    26.595426   -0.3800217            0  -0.33876895   -160.61574 
   31650    28.968705  -0.38371885            0  -0.33878486   -84.536513 
   31700    26.736253  -0.38024342            0  -0.33877224   -87.587588 
   31750    33.044983  -0.39007124            0  -0.33881445   -192.28558 
   31800    27.580547  -0.38157529            0  -0.33879451    221.00497 
   31850    31.434617  -0.38753434            0  -0.33877542    293.52617 
   31900    35.368111  -0.39365582            0  -0.33879557    2.8927135 
   31950     29.06275  -0.38385283            0  -0.33877297   -132.67944 
   32000     34.79149   -0.3927671            0  -0.33880126    107.59848 
   32050    34.295974  -0.39200692            0  -0.33880969    288.55614 
   32100    28.838318  -0.38351138            0  -0.33877964   -144.37162 
   32150    26.164321  -0.37934255            0   -0.3387585   -294.17852 
   32200    37.771347  -0.39732811            0  -0.33874015     80.50691 
   32250    34.184562  -0.39178554            0  -0.33876112   -81.117177 
   32300    28.246979  -0.38259222            0  -0.33877772   -104.80427 
   32350    26.349307  -0.37963998            0    -0.338769   -16.847324 
   32400    22.871906  -0.37425022            0  -0.33877311   -183.86575 
   32450    24.798841  -0.37719995            0  -0.33873393    166.83174 
   32500    28.625688  -0.38320857            0  -0.33880664   -8.7259427 
   32550    14.720628  -0.36157608            0  -0.33874259    40.603139 
   32600    26.016914  -0.37912258            0  -0.33876718    184.74602 
   32650     29.28476  -0.38420753            0   -0.3387833   -61.772278 
   32700    29.199907  -0.38406663            0  -0.33877402   -54.661263 
   32750      27.4414  -0.38135565            0  -0.33879069    25.126095 
   32800    23.028327   -0.3745109            0  -0.33879116    -93.00891 
   32850    31.521292  -0.38769105            0  -0.33879769    61.901255 
   32900    17.459503  -0.36584891            0  -0.33876709    180.36577 
   32950    21.551294  -0.37217279            0  -0.33874411    188.41193 
   33000    28.661638  -0.38328503            0  -0.33882734    140.70712 
   33050    16.651522  -0.36458248            0  -0.33875394    37.985617 
   33100    26.978052  -0.38062066            0  -0.33877442    167.04237 
   33150    24.543647  -0.37679384            0  -0.33872366    197.53837 
   33200    13.307582  -0.35941186            0  -0.33877018   -127.76652 
   33250    22.923916  -0.37432212            0  -0.33876434   -34.043715 
   33300    34.687117  -0.39258187            0  -0.33877793   -97.859597 
   33350    15.462171  -0.36274222            0  -0.33875851    -10.92431 
   33400     29.59623  -0.38471654            0  -0.33880919   -11.817698 
   33450    18.771751  -0.36790252            0  -0.33878524    49.776186 
   33500    33.306653  -0.39046165            0  -0.33879898   -124.98763 
   33550    19.166645  -0.36848837            0  -0.33875857   -51.648399 
   33600    27.086663  -0.38077301            0   -0.3387583   -54.566522 
   33650    23.556965  -0.37531119            0  -0.33877147   -70.438168 
   33700    15.235414  -0.36239021            0  -0.33875823    51.165986 
   33750    24.836365  -0.37731786            0  -0.33879363   -10.490489 
   33800    20.587889  -0.37068675            0  -0.33875242    -29.95959 
   33850    29.240759  -0.38415339            0  -0.33879741   -161.08624 
   33900    23.434419  -0.37517275            0  -0.33882311    6.7272317 
   33950    25.698338  -0.37865035            0   -0.3387891    260.23973 
   34000    25.504481  -0.37835732            0  -0.33879676   -81.165156 
   34050    23.975608  -0.37594957            0  -0.33876049    79.382844 
   34100    28.386279  -0.38281298            0  -0.33878241   -96.228997 
   34150    26.235327  -0.37947767            0  -0.33878348   -107.76532 
   34200    18.979341  -0.36818177            0   -0.3387425    64.264925 
   34250    25.642537  -0.37855036            0  -0.33877566   -83.535441 
   34300    18.864022  -0.36803109            0   -0.3387707   -113.33682 
   34350    34.438384  -0.39220636            0  -0.33878824   -67.004952 
   34400    27.202389  -0.38097731            0  -0.33878309   -172.53795 
   34450    28.661855  -0.38323773            0   -0.3387797    45.354658 
   34500    39.415907  -0.39990439            0  -0.33876552  0.034612819 
   34550    21.601918  -0.37226327            0  -0.33875606   -244.19111 
   34600    41.961233  -0.40390297            0  -0.33881599    172.68855 
   34650    22.900995  -0.37427838            0  -0.33875615   -124.14129 
   34700    44.860872  -0.40836228            0   -0.3387776    115.10568 
   34750    24.399588  -0.37660745            0  -0.33876072   -41.928804 
   34800    21.394228  -0.37193792            0  -0.33875287   -287.30268 
   34850    49.564251   -0.4157079            0  -0.33882771   -60.824233 
   34900    35.044808  -0.39312959            0  -0.33877083   -2.8031695 
   34950    33.083767  -0.39011759            0  -0.33880064    94.019621 
   35000    11.879856  -0.35715908            0  -0.33873198   -86.745878 
   35050    33.935478  -0.39141711            0  -0.33877905   -283.79536 
   35100    32.098259  -0.38852524            0  -0.33873693    289.78977 
   35150    32.851866  -0.38973556            0  -0.33877831    44.597211 
   35200    31.708012  -0.38799926            0  -0.33881627   -161.61375 
   35250    31.209946  -0.38720105            0  -0.33879062   -72.405857 
   35300    42.260321  -0.40437826            0  -0.33882736    58.882633 
   35350    24.099911  -0.37617132            0  -0.33878943    61.697413 
   35400     33.69843  -0.39104359            0  -0.33877322    154.74723 
   35450    28.738719  -0.38334161            0  -0.33876436   -45.800374 
   35500    36.716242   -0.3957365            0  -0.33878514   -89.621344 
   35550    24.007144  -0.37602245            0  -0.33878445     223.2557 
   35600    40.609596  -0.40185853            0   -0.3388681    152.79064 
   35650    29.033628  -0.38382246            0  -0.33878777   -93.356612 
   35700    34.706037  -0.39262455            0  -0.33879126   -69.905055 
   35750     28.49503  -0.38296836            0   -0.3387691    -154.3841 
   35800    39.070534  -0.39938768            0  -0.33878453   -77.385244 
   35850    36.029086  -0.39471546            0  -0.33882996   -23.683694 
   35900    28.099897   -0.3823542            0  -0.33876784   -164.95786 
   35950    34.625913  -0.39249426            0  -0.33878526    92.799489 
   36000    34.294654  -0.39195018            0    -0.338755    320.27555 
   36050    17.985261  -0.36663177            0  -0.33873444    9.8915373 
   36100    34.671327  -0.39260547            0  -0.33882602    214.53236 
   36150    20.823471  -0.37103679            0  -0.33873705    275.73292 
   36200    38.935288  -0.39928602            0  -0.33889264   -18.189885 
   36250    30.218378  -0.38568325            0  -0.33881087   -141.27658 
   36300    42.324641  -0.40447511            0  -0.33882444   -70.836663 
   36350    26.568929  -0.37997685            0  -0.33876521    409.29024 
   36400    35.271366  -0.39346974            0  -0.33875956    119.82016 
   36450     16.34796  -0.36408654            0  -0.33872886   -171.81181 
   36500    44.860385  -0.40838665            0  -0.33880273    44.252354 
   36550      31.1529  -0.38713038            0  -0.33880844    161.79507 
   36600    29.798782   -0.3850303            0  -0.33880877     25.32138 
   36650    24.880525  -0.37736027            0  -0.33876754   -177.46944 
   36700    31.041325  -0.38692644            0  -0.33877757   -46.245437 
   36750     37.87726  -0.39757463            0  -0.33882239    232.75011 
   36800     29.67888  -0.38483546            0   -0.3387999    83.368685 
   36850    41.228941  -0.40281441            0   -0.3388633    42.773157 
   36900    35.165307  -0.39339242            0  -0.33884675    128.88366 
   36950    39.914841  -0.40078253            0  -0.33886975    209.49883 
   37000    17.230363  -0.36547279            0   -0.3387464    60.619976 
   37050    31.237814  -0.38724968            0  -0.33879603    87.900785 
   37100    25.801656  -0.37877345            0  -0.33875194    186.43552 
   37150     36.55516  -0.39551857            0  -0.33881707    422.12734 
   37200    36.778094   -0.3958522            0  -0.33880489   -58.178684 
   37250    22.885228  -0.37425652            0  -0.33875874   -19.080552 
   37300    34.650633  -0.39256184            0  -0.33881449    155.63215 
   37350    19.988431  -0.36976989            0   -0.3387654    14.117942 
   37400    43.005556  -0.40557842            0  -0.33887157    295.18937 
   37450    34.644971  -0.39257035            0  -0.33883178     31.64593 
   37500    27.745445  -0.38181886            0   -0.3387823    76.967467 
   37550    29.193418  -0.38406572            0  -0.33878317    30.215574 
   37600    36.229297  -0.39496835            0   -0.3387723   -121.39987 
   37650    30.514354  -0.38611903            0  -0.33878755   -257.88968 
   37700    29.144986  -0.38398064            0  -0.33877322    -62.09853 
   37750    28.493682  -0.38295405            0  -0.33875688   -60.898004 
   37800    38.410771  -0.39841011            0  -0.33883033   -64.295201 
   37850     32.00553  -0.38842528            0  -0.33878081     250.0947 
   37900    31.553195  -0.38774923            0  -0.33880639    97.002024 
   37950    29.910894  -0.38515649            0  -0.33876105   -23.484905 
   38000    30.667827  -0.38636166            0  -0.33879213   -118.12386 
   38050    34.442003  -0.39223161            0  -0.33880787    3.3430549 
   38100    32.219503  -0.38873441            0  -0.33875804    200.28647 
   38150    34.445827  -0.39220846            0  -0.33877879    46.084925 
   38200    19.685466  -0.36929606            0   -0.3387615   -177.49073 
   38250    37.469374   -0.3969034            0  -0.33878384  -0.43196491 
   38300    30.494452   -0.3861039            0   -0.3388033    301.48002 
   38350    35.998492  -0.39467916            0  -0.33884112    63.400881 
   38400    32.394079  -0.38906902            0  -0.33882186   -136.51981 
   38450    35.122131  -0.39329088            0  -0.33881218   -102.00532 
   38500    28.801364  -0.38345514            0  -0.33878072    148.94459 
   38550    27.169121  -0.38086834            0  -0.33872573    178.89525 
   38600    35.925699  -0.39453431            0  -0.33880917   -42.947995 
   38650    38.601109  -0.39865552            0   -0.3387805   -209.29959 
   38700    25.189682  -0.37782668            0  -0.33875442   -290.25699 
   38750    43.898155  -0.40693373            0  -0.33884235    52.960722 
   38800    30.640178  -0.38629181            0  -0.33876516    269.87406 
   38850    32.595242   -0.3893117            0  -0.33875252   -28.176589 
   38900    35.422924  -0.39377229            0  -0.33882702   -156.44207 
   38950    31.406142  -0.38748051            0  -0.33876576    241.72527 
   39000    39.455781  -0.40004987            0  -0.33884915    73.121764 
   39050    31.060801  -0.38698529            0   -0.3388062   -131.26588 
   39100    38.223116  -0.39809959            0  -0.33881089    95.763582 
   39150    21.936117  -0.37279514            0  -0.33876955    226.17208 
   39200    30.574585   -0.3862215            0  -0.33879659   -32.272475 
   39250    24.257751  -0.37639668            0  -0.33876996   -241.35751 
   39300    25.135139  -0.37774207            0  -0.33875441    -51.76057 
   39350     24.41056   -0.3766157            0  -0.33875195  -0.99369592 
   39400     28.22031    -0.382564            0  -0.33879086   -3.2148826 
   39450    23.949674  -0.37594533            0  -0.33879647   -25.454273 
   39500    22.214804  -0.37320963            0  -0.33875177   -161.69587 
   39550    27.825329  -0.38192626            0  -0.33876579   -180.38701 
   39600    30.341761  -0.38583525            0  -0.33877149   -100.96244 
   39650    24.333972  -0.37651069            0  -0.33876574   -61.890243 
   39700    30.523183  -0.38610029            0  -0.33875512    86.051499 
   39750    35.161944  -0.39328641            0  -0.33874596    162.05297 
   39800    18.348369  -0.36722503            0  -0.33876448    105.54029 
   39850    24.097534  -0.37612749            0  -0.33874929    3.6099395 
   39900    43.675278  -0.40662387            0   -0.3388782    68.624075 
   39950    39.123105  -0.39952823            0  -0.33884353   -156.75205 
   40000     23.94286  -0.37586811            0  -0.33872982   -157.02284 
   40050    39.702311  -0.40039621            0  -0.33881309   -117.82125 
   40100    50.432049  -0.41708955            0  -0.33886331    112.50492 
   40150     33.45181  -0.39073954            0  -0.33885171    -66.08097 
   40200    28.332771  -0.38266954            0  -0.33872196   -109.63472 
   40250    36.211829   -0.3949535            0  -0.33878454   -71.284334 
   40300    26.116987  -0.37928816            0  -0.33877753   -11.867472 
   40350    39.823054  -0.40057988            0  -0.33880947   -100.66742 
   40400     29.97276  -0.38526481            0  -0.33877341   -339.55932 
   40450    36.670888  -0.39564055            0  -0.33875954   -149.85052 
   40500    30.697884  -0.38641752            0  -0.33880137    135.99772 
   40550    25.420336  -0.37820516            0  -0.33877512    104.71643 
   40600     31.11623  -0.38703193            0  -0.33876687     73.61232 
   40650    29.529064  -0.38456668            0   -0.3387635   -78.896056 
   40700    25.475829  -0.37824075            0  -0.33872464    164.16707 
   40750    31.597818  -0.38782516            0   -0.3388131    78.720095 
   40800    39.890684  -0.40077042            0  -0.33889512    66.849107 
   40850    34.899184  -0.39296149            0  -0.33882861   -21.859602 
   40900    32.907225  -0.38985225            0  -0.33880914   -71.752248 
   40950    37.386935  -0.39679445            0  -0.33880276    11.909998 
   41000    31.941563  -0.38833238            0  -0.33878713   -52.738125 
   41050    38.003415  -0.39774595            0  -0.33879802   -161.92991 
   41100    36.954767  -0.39610643            0  -0.33878508    5.2080054 
   41150    24.850858  -0.37732774            0  -0.33878104   -127.31098 
   41200    38.068606   -0.3978689            0  -0.33881986   -85.406221 
   41250    37.170248  -0.39641991            0  -0.33876433    170.64522 
   41300    29.159201  -0.38398826            0  -0.33875879    11.863189 
   41350    33.658518   -0.3910077            0  -0.33879924    106.19212 
   41400    37.059737   -0.3963253            0  -0.33884114     100.4691 
   41450    25.093155  -0.37769421            0  -0.33877167     -86.6518 
   41500     36.32963  -0.39513551            0  -0.33878384   -204.25938 
   41550    40.725804  -0.40193053            0  -0.33875985   -162.44601 
   41600    29.088309  -0.38389966            0  -0.33878015    10.765451 
   41650    28.354439  -0.38278899            0   -0.3388078    62.708087 
   41700    39.261863   -0.3997298            0  -0.33882987   -76.630325 
   41750    27.615913  -0.38160842            0  -0.33877278    -22.78725 
   41800    37.286038  -0.39662575            0  -0.33879057   -121.47575 
   41850    37.957757  -0.39768837            0  -0.33881127  0.026299331 
   41900    28.113519   -0.3824055            0  -0.33879801    35.948729 
   41950      28.7828  -0.38346216            0  -0.33881653   -40.012732 
   42000    22.258288  -0.37329739            0  -0.33877207    102.70042 
   42050    24.696107  -0.37705519            0  -0.33874852   -61.976141 
   42100    25.740546  -0.37871898            0  -0.33879226   -101.36349 
   42150    27.408307  -0.38133696            0  -0.33882334    28.690866 
   42200    29.535841  -0.38461209            0   -0.3387984    92.957385 
   42250    28.826545  -0.38352635            0  -0.33881287    7.4008452 
   42300     21.97792  -0.37291196            0  -0.33882153   -160.08524 
   42350    29.359037  -0.38430539            0  -0.33876595   -49.997003 
   42400     22.35424  -0.37344688            0  -0.33877274    185.09168 
   42450    27.711423  -0.38175264            0  -0.33876885    20.372596 
   42500    24.632932  -0.37698667            0    -0.338778   -178.54443 
   42550    22.813889  -0.37417335            0  -0.33878623    16.390682 
   42600    18.469819  -0.36740815            0  -0.33875922    22.218183 
   42650    31.636201  -0.38785708            0  -0.33878548    217.59593 
   42700     18.64924  -0.36769284            0   -0.3387656   -96.898039 
   42750    18.105454  -0.36684028            0  -0.33875651   -59.920697 
   42800    35.605588  -0.39405805            0  -0.33882945    121.72734 
   42850    26.508892  -0.37991975            0  -0.33880123   -71.487491 
   42900    20.809014    -0.371029            0  -0.33875169     215.7542 
   42950    25.656121   -0.3785808            0  -0.33878503    34.922266 
   43000    19.957035  -0.36972847            0  -0.33877268   -40.236488 
   43050    26.223772   -0.3794308            0  -0.33875454   -84.349482 
   43100    17.821099  -0.36639184            0  -0.33874915    143.98263 
   43150    21.560908  -0.37223395            0  -0.33879036    -93.10098 
   43200    18.164886   -0.3669455            0  -0.33876955    26.538641 
   43250    18.198798  -0.36699376            0  -0.33876521   -109.11952 
   43300    21.262435  -0.37174664            0  -0.33876602   -5.6708638 
   43350    34.442637  -0.39220698            0  -0.33878225    108.11322 
   43400    37.930344  -0.39764775            0  -0.33881316     62.33951 
   43450    34.459145  -0.39224679            0  -0.33879646   -13.663795 
   43500    36.921399  -0.39606831            0  -0.33879872   -124.37931 
   43550     35.55748  -0.39392407            0  -0.33877009   -191.12282 
   43600    28.345366  -0.38275146            0  -0.33878435    -30.36587 
   43650    26.736271  -0.38022128            0  -0.33875007    185.27706 
   43700    31.320064  -0.38737432            0  -0.33879309   -142.50616 
   43750    34.596165  -0.39241695            0  -0.33875409     95.97145 
   43800    33.411479  -0.39069072            0  -0.33886545    2.9383329 
   43850    29.105168  -0.38393101            0  -0.33878535   -173.38707 
   43900    30.194972  -0.38561783            0  -0.33878175    40.693787 
   43950    38.807066  -0.39899253            0  -0.33879805   -3.2638059 
   44000    27.222867  -0.38100637            0  -0.33878039   -183.56418 
   44050     43.96658  -0.40698903            0  -0.33879151   -198.25106 
   44100     29.23684  -0.38410216            0  -0.33875227    190.57206 
   44150    38.302973  -0.39826626            0  -0.33885368    164.13411 
   44200    22.988068  -0.37437807            0  -0.33872078    184.59116 
   44250    27.540018  -0.38150001            0  -0.33878209    102.28721 
   44300     31.24241  -0.38727173            0  -0.33881095    332.67193 
   44350    35.871619  -0.39447047            0  -0.33882922   -97.642308 
   44400    35.102348  -0.39328918            0  -0.33884116    46.979248 
   44450    40.733658  -0.40198546            0   -0.3388026    77.212961 
   44500    28.027831  -0.38226747            0  -0.33879289   -60.365408 
   44550    20.892391   -0.3711539            0  -0.33874726    51.684896 
   44600    38.863384  -0.39900395            0  -0.33872211    339.53118 
   44650    23.277294  -0.37490846            0  -0.33880254   -127.80535 
   44700    20.725557  -0.37087831            0  -0.33873045    291.45259 
   44750    23.686431  -0.37551553            0  -0.33877499    95.256119 
   44800    32.090137  -0.38857552            0  -0.33879981   -71.278755 
   44850    35.401524    -0.393703            0  -0.33879093   -141.37119 
   44900    24.588465  -0.37690354            0  -0.33876384    20.789337 
   44950    41.384352   -0.4029712            0  -0.33877904    102.33034 
   45000    22.241713  -0.37326026            0  -0.33876065   -129.33564 
   45050    54.012992  -0.42258122            0   -0.3388005    104.58158 
   45100    21.911617  -0.37276228            0  -0.33877469   -164.31702 
   45150    31.257646  -0.38729954            0  -0.33881513   -23.703291 
   45200    28.108357  -0.38239086            0  -0.33879138    131.56782 
   45250    30.258749   -0.3856831            0  -0.33874809    51.968783 
   45300    26.945876  -0.38055698            0  -0.33876065   -32.949888 
   45350    36.132939  -0.39481741            0  -0.33877082     249.6931 
   45400    34.505908  -0.39235127            0  -0.33882841   -166.14981 
   45450    22.851342  -0.37419999            0  -0.33875477   -196.85323 
   45500    36.461953   -0.3953099            0  -0.33875297   -14.150033 
   45550    36.353872  -0.39517333            0  -0.33878405   -116.53399 
   45600    24.066875  -0.37610742            0  -0.33877677   -189.41585 
   45650    36.585871  -0.39558021            0  -0.33883107    55.807387 
   45700    27.183443  -0.38098833            0   -0.3388235    322.42499 
   45750    45.899053  -0.41008533            0  -0.33889032   -35.050004 
   45800    24.213164  -0.37633525            0  -0.33877769   0.26461296 
   45850    40.117139  -0.40102897            0   -0.3388024    180.56774 
   45900    35.491709  -0.39383533            0  -0.33878337   -60.312368 
   45950    25.738902  -0.37870169            0  -0.33877752   -91.734665 
   46000    48.060998  -0.41340233            0  -0.33885387    11.141229 
   46050    27.499481  -0.38145791            0  -0.33880287   -169.68086 
   46100    39.872885  -0.40065272            0  -0.33880502   -78.298258 
   46150    34.492167  -0.39233715            0   -0.3388356   -86.565373 
   46200    32.133393  -0.38862227            0  -0.33877947    96.312214 
   46250    30.175798     -0.38557            0  -0.33876367   -57.449254 
   46300    34.202395  -0.39184299            0  -0.33879092    11.990521 
   46350    32.729778  -0.38958425            0  -0.33881638   -108.75091 
   46400      22.4663  -0.37359221            0  -0.33874425    46.756654 
   46450    39.275881  -0.39977201            0  -0.33885033    28.340114 
   46500    31.799913   -0.3881224            0  -0.33879686    91.172024 
   46550    29.424523  -0.38439619            0  -0.33875517   -13.479089 
   46600     31.18177  -0.38713519            0  -0.33876847   -61.902938 
   46650    24.756772  -0.37711268            0  -0.33871191    185.48184 
   46700    31.591636  -0.38781491            0  -0.33881243    -6.143774 
   46750    32.745445  -0.38956795            0  -0.33877578    548.04005 
   46800    29.537833  -0.38460402            0  -0.33878725   -126.98935 
   46850    39.616521  -0.40024148            0  -0.33879143   -216.66972 
   46900    32.721052  -0.38951908            0  -0.33876474   -64.037059 
   46950    25.829128  -0.37885509            0  -0.33879097   -84.592261 
   47000    32.838592  -0.38974111            0  -0.33880446   -40.643794 
   47050    35.060801  -0.39321585            0  -0.33883228    323.80353 
   47100    30.184502  -0.38563249            0  -0.33881266    153.51347 
   47150    29.238698  -0.38415799            0  -0.33880522    249.90962 
   47200    27.416216  -0.38132527            0  -0.33879938    272.34665 
   47250    27.039902  -0.38074892            0  -0.33880674    60.918025 
   47300    29.355111  -0.38432294            0  -0.33878959   -81.926221 
   47350     37.90062  -0.39758183            0  -0.33879335   -38.619991 
   47400    33.410803  -0.39062215            0  -0.33879793    158.45144 
   47450    29.636513  -0.38478136            0  -0.33881152   -57.742781 
   47500    25.568925  -0.37841914            0  -0.33875863    -74.78341 
   47550    32.626061  -0.38940037            0  -0.33879338    87.575814 
   47600    22.142795  -0.37312763            0  -0.33878146    50.119272 
   47650    32.758371  -0.38960381            0  -0.33879159   -65.781021 
   47700    39.319113  -0.39987318            0  -0.33888445   -46.245687 
   47750    32.860784  -0.38977515            0  -0.33880408   -232.33184 
   47800     31.38315    -0.387505            0  -0.33882592    117.97101 
   47850    38.206772  -0.39809736            0  -0.33883401    69.494279 
   47900    33.218342  -0.39030266            0  -0.33877697   -20.935852 
   47950    36.985915  -0.39617747            0  -0.33880782    18.937454 
   48000    26.215495  -0.37942837            0  -0.33876495    -79.77097 
   48050    35.356324  -0.39362432            0  -0.33878236   -102.67231 
   48100    32.382899  -0.38900774            0  -0.33877792    53.026681 
   48150    36.500238  -0.39539684            0  -0.33878053     10.34986 
   48200    28.969611  -0.38372539            0     -0.33879   -167.32288 
   48250    32.761447  -0.38962907            0  -0.33881208    176.89248 
   48300    30.531557  -0.38613502            0  -0.33877686    143.15238 
   48350    25.328447  -0.37803845            0  -0.33875095   -21.788371 
   48400    33.004029  -0.38998931            0  -0.33879605    50.536078 
   48450    34.486245  -0.39231118            0  -0.33881882    196.98326 
   48500    24.718681  -0.37712171            0  -0.33878002    23.016055 
   48550    39.124286  -0.39957181            0  -0.33888528     3.513788 
   48600    37.227347  -0.39656272            0  -0.33881858    193.70316 
   48650    28.772125  -0.38343647            0   -0.3388074   -133.91676 
   48700    28.987734  -0.38371549            0  -0.33875198   -8.3370044 
   48750    36.600525   -0.3955469            0  -0.33877503   -116.70997 
   48800     32.79514  -0.38969316            0  -0.33882391   -71.007147 
   48850     32.20655  -0.38878848            0   -0.3388322    184.62511 
   48900    25.178305  -0.37781824            0  -0.33876362    80.701536 
   48950    31.693157  -0.38793556            0  -0.33877562   -1.8482561 
   49000    22.777895  -0.37408238            0  -0.33875109     204.1707 
   49050    25.823839  -0.37884427            0  -0.33878835   -178.05694 
   49100    24.617009  -0.37694602            0  -0.33876204    138.82763 
   49150    42.116248  -0.40415355            0  -0.33882613    38.800835 
   49200    25.526733  -0.37839568            0  -0.33880061    154.36945 
   49250    37.312283   -0.3967105            0   -0.3388346   -45.543631 
   49300    22.419185   -0.3735001            0  -0.33872522    87.848765 
   49350    43.561931  -0.40645129            0  -0.33888143    83.281565 
   49400    26.787999   -0.3803469            0  -0.33879545    124.44626 
   49450    26.497579  -0.37989859            0  -0.33879762    134.66564 
   49500    22.752391  -0.37410179            0  -0.33881006   -62.375554 
   49550    41.241901  -0.40275276            0  -0.33878155     283.1454 
   49600    26.558337  -0.37997159            0  -0.33877637   -186.98305 
   49650    40.509883  -0.40160995            0  -0.33877419   -335.51497 
   49700    31.850178  -0.38818782            0  -0.33878432   -228.08914 
   49750    45.956651  -0.41006764            0  -0.33878328   -100.00541 
   49800    19.026701  -0.36827045            0  -0.33875772   -80.883343 
   49850    42.311304  -0.40443903            0  -0.33880905    234.47975 
   49900    35.648844   -0.3941809            0   -0.3388852    80.471562 
   49950    23.909598  -0.37588543            0  -0.33879873   -116.15587 
   50000    38.531324  -0.39859462            0  -0.33882785   -11.660624 
   50050    37.124881  -0.39636816            0  -0.33878295    62.345196 
   50100    31.101871  -0.38702164            0  -0.33877885    23.646043 
   50150    33.575506  -0.39083167            0  -0.33875198    100.22186 
   50200     25.31071   -0.3780352            0  -0.33877521    -186.6994 
   50250    34.888451  -0.39290611            0  -0.33878988   -16.391433 
   50300    37.701425  -0.39729344            0  -0.33881394   -17.260129 
   50350    27.239657  -0.38096333            0   -0.3387113    200.38977 
   50400    33.506969  -0.39077034            0  -0.33879695   -33.563537 
   50450    33.608091  -0.39092217            0  -0.33879193    -142.3706 
   50500    30.194754  -0.38559817            0  -0.33876243    277.62295 
   50550    34.202663  -0.39185008            0  -0.33879758   -30.827916 
   50600    31.658686  -0.38786857            0  -0.33876209   -122.77061 
   50650    34.271668  -0.39192096            0  -0.33876143     10.70542 
   50700    35.489189  -0.39384483            0  -0.33879678   -47.666358 
   50750    24.428342  -0.37669006            0  -0.33879873   -86.234174 
   50800    30.855443  -0.38663687            0  -0.33877632   -168.14053 
   50850    41.200431  -0.40269608            0   -0.3387892    81.004447 
   50900    20.849184  -0.37109822            0   -0.3387586   -55.659374 
   50950     28.88745  -0.38358611            0  -0.33877816   -110.59742 
   51000    39.180605  -0.39953796            0  -0.33876407    111.28407 
   51050     23.80337  -0.37565507            0  -0.33873314   -118.06894 
   51100    30.932219  -0.38676891            0  -0.33878928    110.42649 
   51150    35.986628  -0.39462252            0  -0.33880287    145.05418 
   51200    18.961691  -0.36810351            0  -0.33869162    215.00193 
   51250    37.202194  -0.39655597            0  -0.33885084    16.617513 
   51300    35.276082  -0.39354921            0  -0.33883171    198.61665 
   51350     23.71209  -0.37552272            0  -0.33874238    -50.88435 
   51400     29.25471  -0.38411238            0  -0.33873477   -212.58823 
   51450    31.614975  -0.38784965            0  -0.33881098   -33.073169 
   51500    40.852934  -0.40224867            0   -0.3388808    94.406247 
   51550    32.694313    -0.389509            0  -0.33879614   -60.250214 
   51600    36.396356   -0.3952832            0  -0.33882802    54.429586 
   51650    28.409645  -0.38281929            0  -0.33875248   -114.58716 
   51700    42.771306  -0.40514748            0  -0.33880398   -125.97374 
   51750    33.250644  -0.39037615            0  -0.33880036   -179.23423 
   51800    34.847985  -0.39285901            0  -0.33880554    37.219913 
   51850    38.210481  -0.39809374            0  -0.33882463    115.11868 
   51900    20.986579  -0.37130689            0  -0.33875415   -251.37309 
   51950    38.414367  -0.39840876            0   -0.3388234   -85.859235 
   52000     29.36821  -0.38434819            0  -0.33879452   -21.989601 
   52050    27.856091  -0.38203174            0  -0.33882356    83.595471 
   52100    22.732839  -0.37400857            0  -0.33874717   -10.937325 
[...]
 1487550    32.542175  -0.38926759            0  -0.33879071   -98.847685 
 1487600    39.248119  -0.39974519            0  -0.33886658    45.786297 
 1487650    34.286543  -0.39193344            0  -0.33875084    333.16619 
 1487700    19.722332  -0.36933475            0  -0.33874301   -63.357239 
 1487750    37.708394  -0.39731018            0  -0.33881987   -173.69803 
 1487800    36.304652   -0.3950877            0  -0.33877476   -119.65866 
 1487850    35.500141  -0.39388074            0   -0.3388157   -120.75135 
 1487900    38.995461  -0.39926198            0  -0.33877527   -168.36661 
 1487950    25.609386  -0.37850049            0  -0.33877722   -10.735478 
 1488000    19.945415  -0.36969771            0  -0.33875995    246.78644 
 1488050    32.083159  -0.38852235            0  -0.33875747    197.02939 
 1488100     35.03346  -0.39315091            0  -0.33880974   -102.32641 
 1488150    22.499808  -0.37363356            0  -0.33873362    137.83694 
 1488200    29.906998  -0.38517334            0  -0.33878395    350.23748 
 1488250    33.014147  -0.39006084            0  -0.33885188    101.35339 
 1488300    30.923057  -0.38674082            0  -0.33877539   -216.88398 
 1488350    26.600262  -0.38006102            0  -0.33880077    158.75541 
 1488400    42.706115   -0.4050734            0  -0.33883102    204.79377 
 1488450    26.500521  -0.37989054            0  -0.33878501   -43.566899 
 1488500    43.577993  -0.40641359            0  -0.33881881   -1.4002022 
 1488550    23.890732  -0.37585673            0  -0.33879929    67.272818 
 1488600    38.033708  -0.39778824            0  -0.33879333    65.801774 
 1488650    26.669711   -0.3801743            0  -0.33880633    2.4333297 
 1488700    45.431423  -0.40928926            0  -0.33881959   -36.587104 
 1488750    33.765005  -0.39115751            0  -0.33878387   -97.068824 
 1488800     34.14013  -0.39176599            0  -0.33881049   -171.50185 
 1488850    37.952327  -0.39765591            0  -0.33878723   -106.60519 
 1488900    31.205658  -0.38721495            0  -0.33881117   -103.35036 
 1488950    46.811783  -0.41144053            0  -0.33882975   -121.26941 
 1489000    28.855473  -0.38354559            0  -0.33878724   -42.863118 
 1489050    37.202406  -0.39656717            0  -0.33886171    69.511001 
 1489100    24.160867  -0.37625803            0  -0.33878158   -53.634136 
 1489150    40.399396  -0.40147401            0  -0.33880963    -212.8275 
 1489200    45.773695  -0.40982346            0  -0.33882289   -233.02058 
 1489250    30.403657  -0.38595827            0  -0.33879849   -77.588012 
 1489300    24.155671  -0.37623456            0  -0.33876617    256.38151 
 1489350     39.60443  -0.40021377            0  -0.33878247    155.53343 
 1489400    15.194705  -0.36231709            0  -0.33874826   -234.18149 
 1489450    50.478536  -0.41714827            0  -0.33884992    167.89605 
 1489500    34.384021   -0.3921274            0  -0.33879359   -223.54882 
 1489550    34.840935  -0.39285173            0   -0.3388092   -174.99049 
 1489600    29.198777  -0.38408244            0  -0.33879158   -185.72025 
 1489650    37.020186  -0.39624885            0  -0.33882603    122.15297 
 1489700     25.52905  -0.37833782            0  -0.33873915     153.2867 
 1489750    36.694099  -0.39571721            0   -0.3388002   -10.687918 
 1489800    28.219285  -0.38255064            0  -0.33877909    189.72429 
 1489850    31.563587   -0.3878343            0  -0.33887533    92.320299 
 1489900    31.966142  -0.38834478            0   -0.3387614    264.99107 
 1489950    28.984709  -0.38374989            0  -0.33879107    197.90596 
 1490000    34.847464  -0.39285025            0  -0.33879759    99.766483 
 1490050    26.124181  -0.37933456            0  -0.33881278    14.679225 
 1490100    40.789147  -0.40205912            0  -0.33879019    227.93705 
 1490150     29.20983  -0.38407172            0  -0.33876372   -328.37666 
 1490200    40.900961  -0.40221783            0  -0.33877546   -176.17666 
 1490250    27.925683  -0.38210783            0  -0.33879169   -81.676665 
 1490300    27.955742  -0.38213742            0  -0.33877466   -121.06481 
 1490350    37.816945  -0.39746712            0  -0.33880843    20.333139 
 1490400    39.364048  -0.39983122            0  -0.33877279     75.03812 
 1490450    23.130893  -0.37462687            0  -0.33874804   -180.09591 
 1490500    26.939583  -0.38053561            0  -0.33874903    156.98963 
 1490550    35.287013  -0.39354063            0  -0.33880618    214.29393 
 1490600    33.825189  -0.39125599            0  -0.33878901    70.460107 
 1490650    26.047397  -0.37916967            0  -0.33876698   -84.686554 
 1490700    42.883454  -0.40532073            0  -0.33880328    235.81057 
 1490750    22.604859  -0.37382248            0   -0.3387596   -263.15813 
 1490800    32.695125  -0.38952438            0  -0.33881026   -39.648055 
 1490850    43.078949  -0.40563018            0  -0.33880949   -1.4200016 
 1490900    31.758239  -0.38803912            0  -0.33877822   -98.367592 
 1490950    24.531674  -0.37680651            0  -0.33875489   -324.10657 
 1491000    31.876997  -0.38821479            0  -0.33876969   -93.902304 
 1491050    28.828954  -0.38352004            0  -0.33880283    214.00288 
 1491100     27.79192  -0.38189204            0  -0.33878339   -43.447439 
 1491150    28.669256  -0.38324009            0  -0.33877058   -53.098782 
 1491200    29.022536  -0.38375611            0  -0.33873863    167.90463 
 1491250    21.197367  -0.37167777            0  -0.33879808    122.87837 
 1491300    36.074437  -0.39476784            0    -0.338812    130.02903 
 1491350    28.305821  -0.38269964            0  -0.33879386   -142.30154 
 1491400    37.054001  -0.39638485            0  -0.33890958     31.41261 
 1491450    24.112881   -0.3761638            0  -0.33876178    187.91277 
 1491500     39.08657  -0.39944995            0  -0.33882192    53.462811 
 1491550     28.99354  -0.38376426            0  -0.33879175   -35.566633 
 1491600    40.583579  -0.40174465            0  -0.33879458   -46.345384 
 1491650    36.714699  -0.39572763            0  -0.33877866   -234.93908 
 1491700    22.449994  -0.37357564            0  -0.33875296   -288.18579 
 1491750    51.749175  -0.41908571            0  -0.33881644   0.67430074 
 1491800    21.939108  -0.37279348            0  -0.33876325    147.96541 
 1491850    23.720843  -0.37556162            0   -0.3387677   -117.86633 
 1491900    25.053911  -0.37760048            0  -0.33873882   -50.490084 
 1491950    40.367586  -0.40139362            0  -0.33877858   -193.90692 
 1492000    25.985095  -0.37906369            0  -0.33875764   -129.18616 
 1492050    46.199848  -0.41054701            0  -0.33888542    219.74001 
 1492100    22.685642  -0.37395916            0  -0.33877097    207.26258 
 1492150    29.143246  -0.38398542            0   -0.3387807    81.772651 
 1492200     35.68306  -0.39413308            0  -0.33878431    71.764881 
 1492250    33.900102  -0.39135389            0   -0.3387707   -193.98225 
 1492300    32.193806   -0.3887654            0  -0.33882889   -299.48231 
 1492350    27.629262  -0.38168752            0  -0.33883117    144.93817 
 1492400    35.464611  -0.39380001            0  -0.33879008    75.866024 
 1492450    30.112555  -0.38550569            0  -0.33879745   -176.88708 
 1492500    36.828338  -0.39591759            0  -0.33879235    8.0592707 
 1492550    32.459166  -0.38913171            0  -0.33878359   -70.574704 
 1492600    33.771071  -0.39119106            0  -0.33880802   -80.114777 
 1492650    31.238872  -0.38724721            0  -0.33879192   -172.05918 
 1492700    40.306253  -0.40129441            0  -0.33877451   -152.25694 
 1492750    30.452205  -0.38602508            0     -0.33879   -206.38388 
 1492800    33.701728   -0.3911049            0  -0.33882941   -54.778694 
 1492850    26.173394  -0.37933934            0  -0.33874122    369.19366 
 1492900    40.048655  -0.40092003            0  -0.33879969   -35.460341 
 1492950    32.894798   -0.3898072            0  -0.33878336   -250.14098 
 1493000     19.80919  -0.36948868            0  -0.33876221   -239.81294 
 1493050    38.419551  -0.39837584            0  -0.33878244    127.38677 
 1493100    26.710967  -0.38020013            0  -0.33876817    139.97767 
 1493150    40.218274   -0.4011775            0  -0.33879406    62.068391 
 1493200    24.263844  -0.37638865            0  -0.33875247   -62.611175 
 1493250    34.521001  -0.39239174            0  -0.33884546    30.889701 
 1493300    38.110078  -0.39790309            0  -0.33878972   -77.575537 
 1493350    21.530182  -0.37215759            0  -0.33876165   -184.66359 
 1493400    22.250356  -0.37331213            0  -0.33879912    95.605012 
 1493450    36.452542  -0.39537358            0  -0.33883125    100.30803 
 1493500    29.585053  -0.38465367            0  -0.33876365   -174.71219 
 1493550    34.243832  -0.39192363            0  -0.33880728   -85.711538 
 1493600     34.99414  -0.39305913            0  -0.33877896   -153.10861 
 1493650    28.767656  -0.38341002            0  -0.33878788   -323.78192 
 1493700    42.837588  -0.40523186            0  -0.33878554   -140.11699 
 1493750    32.662875  -0.38943756            0  -0.33877346    451.41136 
 1493800    25.515361  -0.37836852            0  -0.33879109    73.722567 
 1493850     27.84277  -0.38199052            0    -0.338803   -12.498605 
 1493900    37.487927  -0.39695772            0  -0.33880938   -8.9745602 
 1493950    33.775175  -0.39114772            0  -0.33875831   -257.98413 
 1494000    27.968756  -0.38213649            0  -0.33875355   -43.971983 
 1494050    31.256114  -0.38724642            0  -0.33876438    108.93668 
 1494100    24.005749  -0.37605898            0  -0.33882315    -12.11686 
 1494150    44.015014  -0.40713494            0  -0.33886229    97.053482 
 1494200    27.860269  -0.38199425            0  -0.33877958    21.455065 
 1494250    23.929992  -0.37591809            0  -0.33879976     95.96041 
 1494300    31.514233  -0.38764155            0  -0.33875914   -22.470833 
 1494350    25.394294  -0.37813435            0  -0.33874471    -36.74266 
 1494400     41.23238  -0.40276889            0  -0.33881245    50.897004 
 1494450    22.809948   -0.3741502            0   -0.3387692   -127.51182 
 1494500    41.009855  -0.40243712            0  -0.33882584   -32.176262 
 1494550    33.390501   -0.3905761            0  -0.33878337   -77.981252 
 1494600    34.910723  -0.39297438            0  -0.33882359    24.722476 
 1494650    32.230445  -0.38875706            0  -0.33876371    73.027809 
 1494700    28.789719  -0.38347187            0  -0.33881551   -138.75101 
 1494750    39.887649  -0.40067308            0  -0.33880248   -63.468972 
 1494800    30.390719  -0.38604672            0  -0.33890701    152.39831 
 1494850     31.02694  -0.38693025            0  -0.33880369    7.8752296 
 1494900    33.507165  -0.39082549            0   -0.3388518    102.84726 
 1494950    37.072216  -0.39625089            0  -0.33874737    193.45636 
 1495000    26.399087  -0.37970918            0  -0.33876098   -212.23055 
 1495050    26.125247  -0.37930223            0  -0.33877879   -102.08938 
 1495100    27.000352  -0.38066383            0    -0.338783    112.06058 
 1495150    15.401657  -0.36265872            0  -0.33876888   -30.282149 
 1495200    16.890773  -0.36497147            0  -0.33877183    73.993692 
 1495250    18.206443  -0.36701101            0   -0.3387706    61.273666 
 1495300    22.730842  -0.37404629            0  -0.33878798    -9.839439 
 1495350    26.678812  -0.38015076            0  -0.33876867     -9.58324 
 1495400    30.638569  -0.38629286            0   -0.3387687    30.674159 
 1495450    24.307127  -0.37647646            0  -0.33877315   -203.61908 
 1495500    21.822153  -0.37264664            0  -0.33879782    11.784181 
 1495550    23.844168  -0.37574777            0  -0.33876256    130.81981 
 1495600    23.421952  -0.37513065            0  -0.33880035   -17.948742 
 1495650    28.018918  -0.38228512            0  -0.33882437   -35.382613 
 1495700    26.784167  -0.38033014            0  -0.33878463   -73.408871 
 1495750    19.414241  -0.36885207            0  -0.33873822    69.492633 
 1495800    28.299376    -0.382727            0  -0.33883122    20.826296 
 1495850    37.055532  -0.39630611            0  -0.33882847   -6.3007803 
 1495900    16.764614  -0.36477385            0   -0.3387699    48.557091 
 1495950    26.935033  -0.38054104            0  -0.33876152    125.92813 
 1496000    21.944622  -0.37281851            0  -0.33877973    115.43404 
 1496050    23.648811  -0.37548181            0  -0.33879963   -32.788769 
 1496100    27.469391  -0.38139257            0   -0.3387842    111.60447 
 1496150    20.453726  -0.37048997            0  -0.33876375    242.37856 
 1496200    21.596769  -0.37229965            0  -0.33880043    139.10319 
 1496250    17.810037  -0.36638157            0  -0.33875604      49.3757 
 1496300    26.200297  -0.37940732            0  -0.33876747   -234.29867 
 1496350    26.020935  -0.37913031            0  -0.33876867   -263.93767 
 1496400    25.730116  -0.37867862            0  -0.33876808    61.210345 
 1496450    19.407225  -0.36887382            0  -0.33877085    70.413579 
 1496500    25.620657  -0.37849777            0  -0.33875701    305.45157 
 1496550    23.196597  -0.37475533            0  -0.33877458    69.318869 
 1496600    19.007858  -0.36825132            0  -0.33876782    7.3451725 
 1496650    28.633839  -0.38317755            0  -0.33876298   -82.170206 
 1496700    22.657062   -0.3739153            0  -0.33877144    158.78918 
 1496750    22.678341   -0.3739239            0  -0.33874703    173.80741 
 1496800    37.001005  -0.39620378            0  -0.33881072   -34.339085 
 1496850    26.702609  -0.38022316            0  -0.33880416     213.3077 
 1496900    42.746843  -0.40509968            0  -0.33879412    252.84124 
 1496950    25.651821  -0.37858112            0  -0.33879202    82.552591 
 1497000    33.741851  -0.39112359            0  -0.33878587    101.56711 
 1497050    26.839244  -0.38040419            0  -0.33877325   -135.44795 
 1497100    41.552687   -0.4032427            0  -0.33878942   -80.678822 
 1497150    34.086188  -0.39165798            0  -0.33878615    125.19329 
 1497200    20.938546  -0.37124314            0  -0.33876491    126.35689 
 1497250    33.691852  -0.39105926            0   -0.3387991    97.119314 
 1497300    34.696146  -0.39257189            0  -0.33875394   -79.456025 
 1497350    34.487318   -0.3922958            0  -0.33880177    -76.19953 
 1497400    25.142014  -0.37774312            0   -0.3387448     -29.6222 
 1497450    43.560506  -0.40635439            0  -0.33878674    131.12829 
 1497500    27.865252   -0.3820009            0   -0.3387785    104.31392 
 1497550    26.490348  -0.37984204            0  -0.33875228   -316.26544 
 1497600    26.516107  -0.37988025            0  -0.33875054   -164.57573 
 1497650    39.580666  -0.40022744            0  -0.33883301    372.42261 
 1497700    23.644158  -0.37547692            0  -0.33880195    258.35592 
 1497750    34.685382  -0.39257919            0  -0.33877794    263.03809 
 1497800     36.61929  -0.39558233            0  -0.33878135   -335.65889 
 1497850    30.375981  -0.38589157            0  -0.33877472   -100.72449 
 1497900     33.69267  -0.39103545            0  -0.33877401    200.68385 
 1497950    23.739653   -0.3755837            0   -0.3387606   -129.46783 
 1498000    35.110535  -0.39324236            0  -0.33878165   -127.82376 
 1498050    41.270681  -0.40279942            0  -0.33878357    53.789249 
 1498100    25.155365  -0.37778096            0  -0.33876193   -171.12864 
 1498150    37.143456  -0.39642688            0  -0.33881286    120.75255 
 1498200    22.190932  -0.37318174            0   -0.3387609    469.59231 
 1498250    35.126067  -0.39327452            0  -0.33878972    143.17409 
 1498300    29.583528  -0.38466296            0  -0.33877531   -56.019622 
 1498350    30.218804  -0.38567197            0  -0.33879892    181.84751 
 1498400    23.367085  -0.37502378            0  -0.33877859     59.65107 
 1498450    38.992269   -0.3992346            0  -0.33875284    121.00297 
 1498500     23.61298  -0.37539804            0  -0.33877143    97.362022 
 1498550    31.099894  -0.38713697            0  -0.33889725    102.06044 
 1498600    32.464341  -0.38908959            0  -0.33873345    101.04894 
 1498650    37.308918  -0.39667576            0  -0.33880509   -60.252419 
 1498700    28.760653  -0.38338576            0  -0.33877448   -71.752509 
 1498750    45.362284   -0.4092141            0  -0.33885168    75.688444 
 1498800    29.808344  -0.38503878            0  -0.33880241   -12.724676 
 1498850    28.940136  -0.38365109            0  -0.33876142    89.969489 
 1498900    27.807306  -0.38193592            0   -0.3388034   -6.5481392 
 1498950     39.75777  -0.40046201            0  -0.33879287    51.477782 
 1499000    28.568665  -0.38311273            0  -0.33879926    25.230971 
 1499050     22.29774   -0.3733719            0  -0.33878539   -37.020059 
 1499100    38.432418  -0.39839261            0  -0.33877925    168.06929 
 1499150    27.973253  -0.38213862            0   -0.3387487    103.06934 
 1499200    36.514687  -0.39538421            0  -0.33874549    38.893403 
 1499250    30.840276  -0.38664843            0  -0.33881141   -11.431086 
 1499300    38.527859  -0.39855925            0  -0.33879785   -123.77512 
 1499350    24.441257  -0.37666005            0  -0.33874868   -181.83827 
 1499400    27.638463  -0.38161902            0   -0.3387484    -65.26632 
 1499450     39.65268  -0.40031164            0  -0.33880551   -56.987224 
 1499500    42.802257  -0.40520161            0   -0.3388101    14.950053 
 1499550    26.243084  -0.37946917            0  -0.33876295   -109.80147 
 1499600    37.262067  -0.39657641            0  -0.33877841   -73.409291 
 1499650    29.899536  -0.38524217            0  -0.33886435    42.935361 
 1499700     32.27106   -0.3888096            0  -0.33875326    211.00765 
 1499750    29.424805   -0.3844088            0  -0.33876734    54.259931 
 1499800    25.658901  -0.37856259            0  -0.33876251    84.761849 
 1499850    34.036414  -0.39162102            0   -0.3388264    99.992205 
 1499900    28.743557  -0.38336448            0  -0.33877972    53.524045 
 1499950    38.964993  -0.39924325            0   -0.3388038     -122.937 
 1500000    30.445331  -0.38601377            0  -0.33878936   -96.510107 
Loop time of 4.1017 on 1 procs for 1500000 steps with 13 atoms

Performance: 157983.465 ns/day, 0.000 hours/ns, 365702.466 timesteps/s
93.6% CPU use with 1 MPI tasks x no OpenMP threads

MPI task timing breakdown:
Section |  min time  |  avg time  |  max time  |%varavg| %total
---------------------------------------------------------------
Pair    | 1.7455     | 1.7455     | 1.7455     |   0.0 | 42.55
Neigh   | 0.00069547 | 0.00069547 | 0.00069547 |   0.0 |  0.02
Comm    | 0.097931   | 0.097931   | 0.097931   |   0.0 |  2.39
Output  | 0.99948    | 0.99948    | 0.99948    |   0.0 | 24.37
Modify  | 1.0575     | 1.0575     | 1.0575     |   0.0 | 25.78
Other   |            | 0.2006     |            |       |  4.89

Nlocal:        13.0000 ave          13 max          13 min
Histogram: 1 0 0 0 0 0 0 0 0 0
Nghost:         0.00000 ave           0 max           0 min
Histogram: 1 0 0 0 0 0 0 0 0 0
Neighs:        78.0000 ave          78 max          78 min
Histogram: 1 0 0 0 0 0 0 0 0 0

Total # of neighbors = 78
Ave neighs/atom = 6.0000000
Neighbor list builds = 395
Dangerous builds = 0
unfix l0
unfix frdf
unfix fpe
unfix fmsd
undump 1
undump 2
clear
Total wall time: 0:00:10
