units metal
dimension 3
atom_style atomic
atom_modify map array
boundary f f f
region mybox block -5 5 -5 5 -5 5
read_data starting_configuration.lj
Reading data file ...
  orthogonal box = (-5.0000000 -5.0000000 -5.0000000) to (5.0000000 5.0000000 5.0000000)
  1 by 1 by 1 MPI processor grid
  reading atoms ...
  13 atoms
  read_data CPU = 0.007 seconds
mass 1 39.948
velocity all create 78.0 10 mom yes rot yes dist gaussian
pair_style pace
ACE version: 2021.4.9
Recursive evaluator is used
pair_coeff * * ACE_MD/TEMP/parameters.ace Ar
Loading ACE_MD/TEMP/parameters.ace
Total number of basis functions
	Ar: 8 (r=1) 0 (r>1)
Mapping LAMMPS atom type #1(Ar) -> ACE species type #0
compute S all pressure NULL virial
fix vir all ave/time 1 50 50 c_S[1] c_S[2] c_S[3] c_S[6] c_S[5] c_S[4] file ACE_MD/TEMP/tmp.virial
compute rdf all rdf 100
fix frdf all ave/time 50 19999 1000000 c_rdf[*] file ACE_MD/TEMP/tmp.rdf mode vector
compute pe all pe
fix fpe all ave/time 1 50 50 c_pe file ACE_MD/TEMP/tmp.pe
compute msd all msd com yes
fix fmsd all ave/time 1 50 50 c_msd[4] file ACE_MD/TEMP/tmp.msd
thermo 50
fix l0 all nve langevin 78.0 78.0 1 10
timestep 0.005
dump 1 all xyz 50 ACE_MD/TEMP/dump.xyz
dump 2 all custom 50 ACE_MD/TEMP/dump.positions_and_forces type id x y z fx fy fz
run 1000000
Neighbor list info ...
  update every 1 steps, delay 10 steps, check yes
  max neighbors/atom: 2000, page size: 100000
  master list distance cutoff = 6
  ghost atom cutoff = 6
  binsize = 3, bins = 4 4 4
  2 neighbor lists, perpetual/occasional/extra = 1 1 0
  (1) pair pace, perpetual
      attributes: full, newton on
      pair build: full/bin/atomonly
      stencil: full/bin/3d
      bin: standard
  (2) compute rdf, occasional, half/full from (1)
      attributes: half, newton on
      pair build: halffull/newton
      stencil: none
      bin: none
Per MPI rank memory allocation (min/avg/max) = 6.298 | 6.298 | 6.298 Mbytes
Step Temp E_pair E_mol TotEng Press 
       0           78  -0.46542908            0  -0.34444159    129.04672 
      50    21.847476  -0.37815756            0  -0.34426947    -172.4681 
     100     30.64329  -0.39178937            0   -0.3442579   -173.46797 
     150    35.209289    -0.398907            0   -0.3442931   -195.96959 
     200    39.444965  -0.40546918            0  -0.34428524    32.077171 
     250     33.47034  -0.39624512            0  -0.34432855   -154.49687 
     300    31.980559  -0.39384416            0  -0.34423842    196.90853 
     350    36.782686  -0.40136818            0  -0.34431375   -132.08093 
     400    24.676046  -0.38254838            0  -0.34427283   -41.222019 
     450    28.534767  -0.38856228            0  -0.34430139    18.409061 
     500    35.255066  -0.39896612            0  -0.34428122   -77.368818 
     550    30.051921  -0.39086629            0  -0.34425211    100.70046 
     600    35.925404  -0.40002312            0  -0.34429844   -143.82893 
     650    34.488771  -0.39776227            0  -0.34426599   -57.165054 
     700    25.690494  -0.38417852            0  -0.34432944   -139.76117 
     750    30.879811  -0.39217118            0  -0.34427283   -8.0881025 
     800    30.815163  -0.39211853            0  -0.34432047   -51.354269 
     850    26.111334   -0.3848245            0  -0.34432264    72.002329 
     900    31.053189   -0.3924531            0  -0.34428582   -238.14411 
     950    37.606169   -0.4026068            0  -0.34427505   -135.03693 
    1000     22.60947  -0.37933378            0  -0.34426374    189.96138 
    1050    27.135715  -0.38638243            0  -0.34429163   -22.624355 
    1100    36.474376  -0.40088003            0  -0.34430384     19.53832 
    1150    40.278267  -0.40678486            0  -0.34430836    17.103072 
    1200    23.260997  -0.38034984            0  -0.34426921   -195.31477 
    1250    46.954559  -0.41717832            0  -0.34434609    114.02596 
    1300    26.821988  -0.38590723            0  -0.34430306    18.588688 
    1350    39.043782  -0.40487922            0  -0.34431756   -41.308901 
    1400    34.293127  -0.39750888            0  -0.34431606   -146.63177 
    1450    45.169855  -0.41441665            0   -0.3443527    193.66839 
    1500    36.335467  -0.40065516            0  -0.34429443   -41.195341 
    1550    22.079246  -0.37853791            0  -0.34429031   -196.35652 
    1600    26.785353  -0.38586652            0  -0.34431917    66.173404 
    1650    25.474266  -0.38379291            0  -0.34427922    98.937941 
    1700    24.323374  -0.38198971            0  -0.34426119   -294.31008 
    1750    20.646498  -0.37632022            0  -0.34429499   -157.31783 
    1800    36.260397  -0.40052895            0  -0.34428466    36.583739 
    1850    26.765577  -0.38582365            0  -0.34430698   -95.691898 
    1900     30.22216  -0.39120272            0  -0.34432448    10.222322 
    1950    26.372197  -0.38522961            0  -0.34432312   -113.01902 
    2000    27.800651  -0.38737563            0  -0.34425343   -53.321746 
    2050    21.705518  -0.37796003            0  -0.34429213    -109.6842 
    2100    22.471599  -0.37913359            0   -0.3442774    311.27146 
    2150    34.302004  -0.39750836            0  -0.34430177   -116.70572 
    2200    24.169457  -0.38176619            0  -0.34427641   -116.91271 
    2250     25.20438  -0.38338082            0  -0.34428576   -118.98558 
    2300    31.154046  -0.39261867            0  -0.34429495    24.161262 
    2350    35.023532  -0.39862716            0   -0.3443014   -133.68011 
    2400    16.737949  -0.37021792            0  -0.34425532   -166.24458 
    2450    27.485277  -0.38693078            0  -0.34429777   -184.25286 
    2500    33.070772  -0.39561455            0  -0.34431776   -63.845081 
    2550    25.563751  -0.38393768            0  -0.34428519   -48.285138 
    2600    26.488999  -0.38540342            0  -0.34431576    58.569398 
    2650    27.166068  -0.38642417            0  -0.34428629   -108.99629 
    2700    27.256514   -0.3865509            0  -0.34427273   -157.16395 
    2750    15.961294  -0.36900986            0  -0.34425195   -1.0558792 
    2800     23.49669  -0.38069537            0  -0.34424914    7.6967791 
    2850     21.37638  -0.37742388            0  -0.34426652   -47.379685 
    2900    36.382874  -0.40075251            0  -0.34431825    43.174161 
    2950    17.807274   -0.3718785            0  -0.34425725     5.435955 
    3000    25.964834  -0.38458435            0  -0.34430974    28.082939 
    3050    28.443155  -0.38840809            0  -0.34428929   -201.53852 
    3100    27.933204  -0.38759719            0  -0.34426939   -14.309522 
    3150    28.539673  -0.38859794            0  -0.34432943    167.86923 
    3200    20.646484  -0.37628162            0  -0.34425641   -50.233632 
    3250    20.343707  -0.37581523            0  -0.34425967   -61.410344 
    3300    29.143722  -0.38952855            0  -0.34432309    45.468892 
    3350    25.910602  -0.38450776            0  -0.34431727   -72.689065 
    3400    22.973228  -0.37993854            0  -0.34430426   -12.177793 
    3450    26.874608  -0.38598742            0  -0.34430164    78.894307 
    3500    21.040655  -0.37693339            0  -0.34429677   -91.126058 
    3550    22.028639  -0.37848251            0  -0.34431341    164.83893 
    3600    29.892907   -0.3906252            0  -0.34425766    260.86482 
    3650    33.031213   -0.3955268            0  -0.34429137    18.761828 
    3700    35.571224   -0.3994513            0    -0.344276    -112.6354 
    3750    19.428288  -0.37429389            0  -0.34415825    198.98149 
    3800    31.179544  -0.39262402            0  -0.34426076   -16.347342 
    3850    36.174376  -0.40037925            0  -0.34426839   -225.27544 
    3900    24.758372  -0.38267905            0   -0.3442758    -103.4298 
    3950    39.412383  -0.40544454            0  -0.34431114   -107.47609 
    4000    51.213169  -0.42383947            0  -0.34440161    21.441193 
    4050    17.318815  -0.37111514            0  -0.34425155   -145.54382 
    4100    38.209928  -0.40358061            0  -0.34431237   -1.1031252 
    4150    29.519919  -0.39007673            0  -0.34428775    390.33441 
    4200    25.770352  -0.38428135            0   -0.3443084    -25.23589 
    4250    26.489958  -0.38535064            0  -0.34426149     140.3167 
    4300    32.230403  -0.39427185            0  -0.34427858    83.178723 
    4350     29.15955  -0.38951966            0  -0.34428965    100.41008 
    4400    38.283482  -0.40370496            0  -0.34432262    139.76333 
    4450    19.597036  -0.37467522            0  -0.34427783    57.831942 
    4500    39.154573  -0.40507636            0  -0.34434285    80.166228 
    4550    45.594362  -0.41508653            0  -0.34436412     119.4306 
    4600    29.425125  -0.38990404            0  -0.34426209   -160.76898 
    4650    16.697253  -0.37016889            0  -0.34426942   -170.90502 
    4700    36.208007  -0.40044238            0  -0.34427936   -123.90821 
    4750    30.321605  -0.39133532            0  -0.34430282    8.0588321 
    4800    39.954821  -0.40625545            0  -0.34428065     89.58466 
    4850    26.299179  -0.38503675            0  -0.34424352   -157.78805 
    4900    36.424331  -0.40082096            0  -0.34432239   -253.78557 
    4950    28.680025  -0.38874477            0  -0.34425856    4.5199927 
    5000    37.495736  -0.40247885            0   -0.3443184   -48.577746 
    5050    38.312283  -0.40377919            0  -0.34435218   -4.8422284 
    5100    29.605926  -0.39019347            0  -0.34427108   -39.706936 
    5150    34.732675  -0.39819564            0  -0.34432103   -14.784538 
    5200    34.696647  -0.39814005            0  -0.34432132    155.01675 
    5250    31.961033  -0.39386294            0  -0.34428749   -120.44645 
    5300    32.085021  -0.39404533            0  -0.34427756    25.026819 
    5350    26.854903  -0.38591201            0  -0.34425679    342.18003 
    5400    28.192538  -0.38803223            0  -0.34430218    26.634676 
    5450    30.454584  -0.39157173            0  -0.34433296     83.86566 
    5500    33.491604  -0.39625088            0  -0.34430132    204.38348 
    5550    24.301837  -0.38198803            0  -0.34429293   -109.09193 
    5600    45.148137  -0.41435059            0  -0.34432033    -41.11664 
    5650    29.574537  -0.39017483            0  -0.34430113   -25.234649 
    5700    31.291077  -0.39284159            0  -0.34430532   -95.670299 
    5750    38.191105  -0.40350899            0  -0.34426993    152.23419 
    5800    27.605192  -0.38709255            0  -0.34427353   -187.47087 
    5850    15.027241  -0.36755842            0  -0.34424934   -126.28142 
    5900    29.243228  -0.38966247            0  -0.34430267     148.6857 
    5950    39.585293  -0.40569999            0  -0.34429838    91.301234 
    6000    29.436219  -0.38993142            0  -0.34427227    -117.1301 
    6050    32.355767  -0.39449256            0  -0.34430482    -47.98709 
    6100    27.268388   -0.3865665            0  -0.34426991   -29.078416 
    6150    40.109838  -0.40652631            0  -0.34431107    35.116938 
    6200    30.742599  -0.39196811            0   -0.3442826   -53.394134 
    6250     32.61499  -0.39484799            0  -0.34425817    92.565327 
    6300    36.249015  -0.40055506            0  -0.34432842    109.75111 
    6350    30.017224  -0.39083376            0  -0.34427339    7.9175311 
    6400    19.846527  -0.37506731            0  -0.34428293   -87.172158 
    6450    40.914484  -0.40774292            0  -0.34427958   -13.113046 
    6500    31.222615  -0.39273922            0  -0.34430915   -233.50186 
    6550    42.879363  -0.41083501            0   -0.3443239    -2.511788 
    6600    38.573293  -0.40416904            0  -0.34433717    105.95271 
    6650    19.860165  -0.37508372            0  -0.34427819   -80.953156 
    6700    25.796544   -0.3842818            0  -0.34426822    -7.747529 
    6750    36.824291  -0.40138572            0  -0.34426676    19.876777 
    6800    23.714021  -0.38100342            0  -0.34422008    313.23909 
    6850    31.761603  -0.39352372            0  -0.34425761    94.716772 
    6900    30.197558  -0.39112486            0  -0.34428477   -24.918517 
    6950    25.437375  -0.38374519            0  -0.34428873    15.716817 
    7000    22.553883  -0.37925761            0  -0.34427379    -128.2239 
    7050    29.902334  -0.39067102            0  -0.34428886    146.28149 
    7100    28.219411  -0.38804865            0  -0.34427691    267.21418 
    7150    34.725517  -0.39816332            0  -0.34429981   -122.68484 
    7200     26.54471  -0.38549843            0  -0.34432436    -4.854018 
    7250    37.204443  -0.40203513            0  -0.34432651    57.916545 
    7300    35.965868  -0.40011098            0  -0.34432354   -64.133094 
    7350    29.601282  -0.39019759            0   -0.3442824   -225.12126 
    7400    40.420835  -0.40704237            0  -0.34434474    259.97959 
    7450    22.193842  -0.37867447            0  -0.34424912     209.1245 
    7500    30.815562  -0.39210567            0  -0.34430698   -96.250962 
    7550    33.327374  -0.39597617            0  -0.34428135    133.12929 
    7600    35.410902  -0.39925523            0  -0.34432861   -4.6366469 
    7650    38.660189  -0.40430504            0  -0.34433838    23.476559 
    7700    28.870158  -0.38907938            0  -0.34429825   -237.47854 
    7750    41.403692  -0.40849235            0  -0.34427018   -243.22291 
    7800    28.844914  -0.38903283            0  -0.34429086   -74.097035 
    7850    31.230201  -0.39272439            0  -0.34428255    321.97269 
    7900    24.547106  -0.38230709            0  -0.34423154    126.86045 
    7950    26.617149  -0.38553654            0   -0.3442501   -222.25306 
    8000    22.754884  -0.37956007            0  -0.34426447    85.225754 
    8050    44.634775  -0.41360691            0  -0.34437294     161.4254 
    8100    34.548809  -0.39788703            0  -0.34429762      126.191 
    8150    29.497505  -0.39005115            0  -0.34429693    33.554191 
    8200    27.053856  -0.38623193            0  -0.34426811    158.91093 
    8250    42.298582  -0.41000356            0  -0.34439331   -113.53957 
    8300    25.688486  -0.38410518            0  -0.34425921   -87.876778 
    8350    26.624681  -0.38555517            0  -0.34425705    174.87772 
    8400      26.6886  -0.38568586            0   -0.3442886   -65.063148 
    8450    35.100572  -0.39871518            0  -0.34426992   -114.56051 
    8500     35.54822  -0.39942455            0  -0.34428494   -51.798636 
    8550    34.333572  -0.39753517            0  -0.34427962   -66.318119 
    8600    30.992252  -0.39234615            0  -0.34427339    79.545382 
    8650    42.128677  -0.40971309            0  -0.34436638    87.737388 
    8700    39.925474  -0.40623026            0  -0.34430099   -247.93802 
    8750    22.467362  -0.37911792            0  -0.34426831   -242.82597 
    8800    40.653993  -0.40732372            0  -0.34426442    175.49831 
    8850    30.235273  -0.39117765            0  -0.34427907    36.062407 
    8900    33.445699  -0.39616782            0  -0.34428947   -178.49536 
    8950    35.687123  -0.39963767            0  -0.34428259   -264.49088 
    9000    38.982149  -0.40477898            0  -0.34431292    31.278953 
    9050    28.778188  -0.38889029            0  -0.34425182    14.118247 
    9100    37.134022   -0.4019549            0  -0.34435551    20.488899 
    9150    28.289035  -0.38817214            0   -0.3442924     92.79858 
    9200    18.992974  -0.37373575            0  -0.34427533   -74.708158 
    9250    22.311085  -0.37885649            0  -0.34424928    169.62174 
    9300    33.701702  -0.39656227            0  -0.34428682    241.54878 
    9350    34.749941  -0.39818337            0  -0.34428198   -115.55524 
    9400    37.801808  -0.40292336            0  -0.34428815   -241.76327 
    9450    30.164439  -0.39105425            0  -0.34426554   -74.026749 
    9500    30.107998  -0.39104691            0  -0.34434574    2.6160607 
    9550    42.081167  -0.40957979            0  -0.34430678    186.67794 
    9600    25.803076   -0.3842798            0  -0.34425608    79.820809 
    9650    37.757653  -0.40288384            0  -0.34431712   -175.70017 
    9700     34.67787  -0.39809007            0  -0.34430047    121.28416 
    9750    32.826703  -0.39517529            0  -0.34425707    155.66745 
    9800    24.847444  -0.38281327            0  -0.34427185   -323.02158 
    9850    37.219748   -0.4020163            0  -0.34428394   -18.410576 
    9900    32.205999  -0.39423724            0  -0.34428182    251.93079 
    9950    28.964157  -0.38922296            0  -0.34429603   -53.976772 
   10000    35.692036   -0.3996776            0  -0.34431491    174.98648 
   10050    32.773711  -0.39513048            0  -0.34429447   -165.36891 
   10100    29.945586  -0.39072459            0  -0.34427534   -310.98317 
   10150    33.426196  -0.39612785            0  -0.34427975   -133.34011 
   10200    50.060187  -0.42197547            0  -0.34432603    103.04241 
   10250    20.026293  -0.37534256            0  -0.34427934   -216.36846 
   10300    34.330929   -0.3975273            0  -0.34427585    74.753275 
   10350    30.832922  -0.39211548            0  -0.34428986    178.53989 
   10400    33.822453  -0.39677884            0   -0.3443161    147.41976 
   10450    30.450627  -0.39152431            0  -0.34429169   -95.439244 
   10500    35.043105  -0.39879724            0  -0.34444112    54.081784 
   10550    40.102245  -0.40653243            0  -0.34432897    47.004956 
   10600    30.240539  -0.39121797            0  -0.34431121    -9.481463 
   10650     46.04337  -0.41584458            0  -0.34442571     112.4322 
   10700    18.750628  -0.37335795            0  -0.34427344  -0.80690241 
   10750    34.669212  -0.39807724            0  -0.34430107     26.43765 
   10800    33.258608  -0.39587225            0   -0.3442841    267.86404 
   10850    28.972029  -0.38921054            0  -0.34427139    88.126284 
   10900    29.953428  -0.39073704            0  -0.34427563   -96.798494 
   10950    37.937034  -0.40312328            0  -0.34427832   -123.25344 
   11000    22.039025  -0.37844576            0  -0.34426055   -33.029852 
   11050    40.919208  -0.40778843            0  -0.34431775   -148.87923 
   11100    32.442141  -0.39459887            0  -0.34427716    -194.4019 
   11150    35.339318  -0.39909258            0    -0.344277   -163.21586 
   11200    34.677404  -0.39808737            0  -0.34429849   -115.26653 
   11250    29.856938  -0.39058416            0  -0.34427241   -126.93475 
   11300    26.295533  -0.38502256            0  -0.34423499    239.91225 
   11350     26.70087  -0.38562901            0  -0.34421271     563.6738 
   11400    24.668975   -0.3825591            0  -0.34429452    211.52528 
   11450    40.677508  -0.40740876            0  -0.34431299    33.063966 
   11500    31.415565  -0.39301509            0  -0.34428573   -160.03912 
   11550    40.691383  -0.40742333            0  -0.34430604    -97.50519 
   11600    37.343142  -0.40224493            0  -0.34432117   -182.25238 
   11650    38.514014  -0.40403499            0  -0.34429506    14.434209 
   11700    22.333613  -0.37891488            0  -0.34427273    24.151043 
   11750    43.586714  -0.41191199            0  -0.34430369    -182.7977 
   11800     19.05441  -0.37381095            0  -0.34425524   -133.33113 
   11850    35.427426  -0.39927093            0  -0.34431868    141.18366 
   11900    39.132149  -0.40503025            0  -0.34433152    111.06143 
   11950    28.235275  -0.38806157            0  -0.34426522   -161.79108 
   12000    40.683648  -0.40739169            0   -0.3442864   -70.158925 
   12050    23.383612  -0.38053284            0  -0.34426201   -41.891583 
   12100    44.894427  -0.41401365            0  -0.34437693    26.318324 
   12150    36.512611  -0.40093598            0  -0.34430047   -142.54169 
   12200    31.239093  -0.39272204            0   -0.3442664    -123.6289 
   12250    45.265862   -0.4145615            0  -0.34434863   -109.12412 
   12300     30.71872  -0.39197121            0  -0.34432274   -38.006457 
   12350     30.30828  -0.39122812            0  -0.34421628    334.87101 
   12400    24.442621  -0.38226945            0  -0.34435597   -53.600744 
   12450    31.187723  -0.39268689            0  -0.34431093   -24.130708 
   12500    30.796973  -0.39203927            0  -0.34426942    173.29004 
   12550    35.691622  -0.39968509            0  -0.34432304    114.67367 
   12600    32.351666  -0.39441222            0  -0.34423085   -35.087375 
   12650    22.960077  -0.37990969            0  -0.34429581   -154.18346 
   12700    40.109435  -0.40662885            0  -0.34441423   -22.420997 
   12750    31.115167  -0.39256804            0  -0.34430463    -10.84827 
   12800    21.214255  -0.37714352            0  -0.34423763     325.4725 
   12850     29.02946  -0.38932785            0  -0.34429962    18.878838 
   12900     33.89372  -0.39684882            0  -0.34427553    46.137584 
   12950    38.492473  -0.40402086            0  -0.34431435   -140.24573 
   13000    36.993063  -0.40166141            0  -0.34428066    66.349442 
   13050    28.307649  -0.38820292            0  -0.34429431   -72.000844 
   13100    23.684651  -0.38100943            0  -0.34427165    -13.82314 
   13150    23.224705   -0.3802803            0  -0.34425596   -81.824259 
   13200    21.991487  -0.37832985            0  -0.34421837     101.0526 
   13250    41.407937   -0.4085339            0  -0.34430515     233.5014 
   13300    29.268819  -0.38980118            0  -0.34440168    242.52791 
   13350    30.812607  -0.39206254            0  -0.34426843    2.2348655 
   13400     32.17597  -0.39420522            0  -0.34429637    -59.45419 
   13450    38.371467  -0.40382197            0  -0.34430315   -15.147309 
   13500    35.635819  -0.39958967            0  -0.34431418    164.83692 
   13550    29.962369  -0.39073323            0  -0.34425795    14.270519 
   13600    31.607515  -0.39331303            0  -0.34428593   -252.01786 
   13650    35.162327  -0.39881699            0  -0.34427594    94.273322 
   13700    30.314699  -0.39128781            0  -0.34426602    33.572533 
   13750      33.5356  -0.39634244            0  -0.34432465   -25.787283 
   13800    35.583067  -0.39949969            0  -0.34430602   -116.40608 
   13850    33.471606  -0.39622112            0  -0.34430258   -35.665128 
   13900     26.34566  -0.38506029            0  -0.34419496    59.131569 
   13950    32.920097  -0.39535798            0   -0.3442949   -26.025254 
   14000    28.219977   -0.3879957            0  -0.34422308    159.77364 
   14050    22.737186   -0.3795202            0  -0.34425206    82.741413 
   14100    33.312388  -0.39591183            0  -0.34424026   -5.7268455 
   14150    28.912636  -0.38916448            0  -0.34431746   -177.46439 
   14200     42.89544  -0.41077605            0     -0.34424    350.15436 
   14250    26.060715  -0.38469259            0  -0.34426925    75.861882 
   14300    33.012491  -0.39548482            0  -0.34427843   -324.93788 
   14350    36.037576  -0.40020062            0  -0.34430195    99.852426 
   14400    38.206505   -0.4035801            0  -0.34431716   -140.44914 
   14450    24.885753  -0.38285253            0   -0.3442517   -50.311002 
   14500    29.117451  -0.38948129            0  -0.34431658   -34.126568 
   14550    42.512484  -0.41024974            0   -0.3443077    22.362787 
   14600     27.67917  -0.38723013            0  -0.34429637   -194.33893 
   14650    23.430524  -0.38061449            0  -0.34427089    44.602601 
   14700    32.041437   -0.3939856            0  -0.34428543   -27.286591 
   14750    43.409833  -0.41164955            0  -0.34431562     77.18869 
   14800    29.286745  -0.38972199            0  -0.34429468   -61.926821 
   14850    26.797737  -0.38581619            0  -0.34424963     74.52095 
   14900     21.53457  -0.37767854            0   -0.3442758    39.543673 
   14950    40.858824  -0.40766113            0  -0.34428412    70.260802 
   15000    28.910859  -0.38912271            0  -0.34427845   -216.79111 
   15050    43.696762  -0.41211863            0  -0.34433964    -45.26426 
   15100     22.27156  -0.37879894            0  -0.34425304    14.680149 
   15150    26.871863  -0.38591586            0  -0.34423433   -165.63303 
   15200    42.675766  -0.41048051            0   -0.3442852   -50.852681 
   15250     20.56238  -0.37615549            0  -0.34426073    62.740725 
   15300     37.57073  -0.40258197            0  -0.34430519   -5.7230502 
   15350    39.288591  -0.40516831            0  -0.34422692   -6.9754537 
   15400    26.960789  -0.38608243            0  -0.34426297   -202.78624 
   15450    30.459645  -0.39153411            0  -0.34428749   -17.452376 
   15500    30.462015  -0.39154415            0  -0.34429385    161.49336 
   15550    37.830029  -0.40301859            0  -0.34433961   -46.933193 
   15600    35.436386  -0.39927397            0  -0.34430782    239.02639 
   15650    31.348552  -0.39290356            0  -0.34427814   -241.32809 
   15700    38.720927  -0.40434858            0  -0.34428771    -191.1815 
   15750    26.652509  -0.38563029            0  -0.34428901   -33.202652 
   15800    28.302868  -0.38818194            0  -0.34428075    477.27726 
   15850    29.162933  -0.38947951            0  -0.34424425    59.120103 
   15900    32.196421  -0.39425226            0  -0.34431169   -162.33704 
   15950    34.725332   -0.3981099            0  -0.34424668     135.7479 
   16000    30.983944  -0.39242157            0   -0.3443617    225.70858 
   16050    47.091949   -0.4174552            0  -0.34440985   -9.6673314 
   16100    30.370164  -0.39144725            0  -0.34433943    141.93241 
   16150    26.811814     -0.38588            0  -0.34429161   -55.217877 
   16200    29.320397  -0.38974859            0  -0.34426909    45.407029 
   16250    31.082412  -0.39252876            0  -0.34431616    89.236479 
   16300    25.377187   -0.3836498            0  -0.34428669    -152.1628 
   16350     30.74624  -0.39200045            0  -0.34430929    55.070947 
   16400    34.013586  -0.39703585            0  -0.34427664    265.35136 
   16450    31.105028  -0.39252301            0  -0.34427532      279.596 
   16500     30.53017  -0.39165356            0  -0.34429755   -113.38644 
   16550    25.117081  -0.38324555            0   -0.3442859    -263.4937 
   16600    44.219142  -0.41290612            0  -0.34431684    19.315788 
   16650     29.79173  -0.39047478            0  -0.34426418     117.1957 
   16700    32.532753  -0.39475317            0   -0.3442909   -128.61976 
   16750    30.924165  -0.39218568            0  -0.34421854    59.209755 
   16800    37.623959  -0.40263664            0   -0.3442773   -245.64215 
   16850    24.187193  -0.38178923            0  -0.34427195   -309.93998 
   16900    34.658623  -0.39804248            0  -0.34428274    24.196497 
   16950    40.116446   -0.4065783            0  -0.34435281    88.023718 
   17000    26.880579  -0.38596717            0  -0.34427212   -111.93778 
   17050    31.632455  -0.39334719            0   -0.3442814    -47.33432 
   17100    30.194954  -0.39115338            0  -0.34431734   0.40808661 
   17150      39.3893  -0.40542237            0  -0.34432477    67.896228 
   17200    25.785271  -0.38426631            0  -0.34427021   -270.26274 
   17250    46.337745   -0.4161752            0  -0.34429971    141.35679 
   17300    24.202753  -0.38180655            0  -0.34426513    179.46293 
   17350    22.945395   -0.3798842            0   -0.3442931    37.946584 
   17400    25.892065  -0.38443968            0  -0.34427793   -133.29655 
   17450    26.566465  -0.38550161            0  -0.34429379     19.11789 
   17500    29.157271  -0.38949981            0  -0.34427333   -120.01331 
   17550    30.782518  -0.39201748            0  -0.34427004   -216.16111 
   17600    23.880989   -0.3813138            0  -0.34427147   -62.453544 
   17650    18.691113  -0.37326599            0   -0.3442738   -1.3636345 
   17700    33.765817  -0.39668798            0  -0.34431309    35.962958 
   17750    19.937581  -0.37518513            0  -0.34425951   -61.613336 
   17800    20.783106  -0.37651091            0  -0.34427378    20.388169 
   17850     26.13983  -0.38482138            0  -0.34427532   -132.35801 
   17900    28.212422   -0.3880376            0   -0.3442767   -30.899616 
   17950    39.516118  -0.40557729            0  -0.34428298     451.1149 
   18000    23.801995  -0.38119903            0  -0.34427924   -1.6871623 
   18050    40.163299  -0.40662004            0  -0.34432187   -124.96219 
   18100    24.938722  -0.38297563            0  -0.34429263    107.44092 
   18150    29.867626  -0.39061451            0  -0.34428619    358.19481 
   18200    23.503387  -0.38072784            0  -0.34427122   -54.994553 
   18250    27.300816  -0.38662197            0  -0.34427508   -18.964826 
   18300    33.001163  -0.39553165            0  -0.34434283     99.71784 
   18350    23.616795  -0.38090965            0  -0.34427713   -111.93866 
   18400    42.552249  -0.41032967            0  -0.34432595   -78.166964 
   18450    41.776975  -0.40912868            0   -0.3443275   -41.385311 
   18500    27.680601  -0.38722021            0  -0.34428423   -256.12917 
   18550    24.748723  -0.38267915            0  -0.34429087   -33.380335 
   18600    52.134335  -0.42520379            0  -0.34433709    254.67984 
   18650    21.772105   -0.3780374            0  -0.34426621    -243.0285 
   18700    23.107024  -0.38010338            0  -0.34426157   -101.93688 
   18750    31.872731  -0.39374577            0  -0.34430728    300.91506 
   18800    31.405719  -0.39301626            0  -0.34430217    46.176444 
   18850     38.04639  -0.40333977            0  -0.34432519    -144.2413 
   18900    27.640141  -0.38712664            0  -0.34425341   -157.33034 
   18950    46.291416   -0.4161207            0  -0.34431708   -63.387917 
   19000    24.416799  -0.38217622            0  -0.34430279    15.837172 
   19050    34.756364  -0.39824036            0    -0.344329    67.322009 
   19100    25.926737  -0.38451573            0   -0.3443002   -18.751069 
   19150    46.273069  -0.41614313            0  -0.34436797    133.74783 
   19200    22.676104  -0.37942382            0  -0.34425042     53.93836 
   19250    20.679444  -0.37634071            0  -0.34426438    132.87636 
   19300    28.283886   -0.3881515            0  -0.34427975    254.34137 
   19350    31.183178  -0.39268889            0  -0.34431999    173.07137 
   19400    29.718958  -0.39032795            0  -0.34423023   -76.099518 
   19450    35.406748  -0.39924751            0  -0.34432733   -183.67023 
   19500    29.572411  -0.39017584            0  -0.34430543    187.98086 
   19550    38.835385  -0.40455362            0  -0.34431522    156.76098 
   19600    29.809541  -0.39051843            0   -0.3442802   -299.90579 
   19650     31.64802  -0.39331847            0  -0.34422854    -122.5896 
   19700    24.433345  -0.38213109            0    -0.344232    15.341287 
   19750    32.900264  -0.39531763            0  -0.34428532   -115.41237 
   19800    31.528463  -0.39320565            0  -0.34430116    85.407389 
   19850    39.583464  -0.40572161            0  -0.34432284   -44.291719 
   19900     33.69692  -0.39663578            0  -0.34436776    57.418246 
   19950    29.575985  -0.39017094            0  -0.34429499   -2.3665119 
   20000    30.423408  -0.39144821            0  -0.34425781    101.84637 
   20050    32.138686  -0.39414413            0  -0.34429312   0.32132496 
   20100    23.919088  -0.38136813            0  -0.34426672    135.43842 
   20150    26.610782  -0.38555903            0  -0.34428246    141.17469 
   20200    27.268068  -0.38660901            0  -0.34431292    59.051986 
   20250      19.5018  -0.37449969            0  -0.34425002   -216.62683 
   20300    28.761885   -0.3888949            0  -0.34428172   -163.62492 
   20350    27.651179   -0.3871737            0  -0.34428335     208.3719 
   20400    25.857271  -0.38442134            0  -0.34431356   -71.384839 
   20450    17.896006  -0.37203219            0   -0.3442733   -38.286338 
   20500    21.687025  -0.37792556            0  -0.34428634    118.77068 
   20550      17.2026   -0.3709488            0  -0.34426548   -153.50728 
   20600    15.052172  -0.36760417            0  -0.34425642    369.70564 
   20650    18.670458  -0.37321596            0  -0.34425581   -76.420493 
   20700    25.030036  -0.38311854            0  -0.34429391    -165.6539 
   20750    17.108229   -0.3707672            0  -0.34423025    24.207221 
   20800     20.82379  -0.37658242            0  -0.34428218   -67.610519 
   20850    22.195753  -0.37870372            0   -0.3442754    180.49497 
   20900     26.60318  -0.38553725            0  -0.34427248     263.8498 
   20950     15.75659   -0.3687069            0  -0.34426651   -214.20111 
   21000    28.502391  -0.38849053            0  -0.34427985   -28.854135 
   21050    24.396411   -0.3821322            0   -0.3442904    109.26802 
   21100    17.094459  -0.37077861            0  -0.34426302    96.209648 
   21150    31.250271  -0.39276358            0  -0.34429061   -124.94687 
   21200     34.81796  -0.39830993            0  -0.34430303     10.81799 
   21250    20.262598  -0.37571956            0   -0.3442898   -42.130408 
   21300    20.284601  -0.37570933            0  -0.34424544    339.45795 
   21350    21.156142  -0.37711042            0  -0.34429466    115.31996 
   21400    9.1451341  -0.35842462            0   -0.3442394   -35.352795 
   21450    23.935398  -0.38142419            0  -0.34429748    162.55315 
   21500    27.603993  -0.38710169            0  -0.34428453    315.20291 
   21550    32.631133  -0.39485509            0  -0.34424023     52.91861 
   21600     28.39156  -0.38833128            0  -0.34429251   -182.45008 
   21650     30.05011    -0.390913            0  -0.34430162   -84.965229 
   21700    19.118414  -0.37391065            0  -0.34425566   -45.456194 
   21750    45.508808  -0.41490262            0  -0.34431292     135.3163 
   21800    34.690928  -0.39815338            0  -0.34434353    -89.77396 
   21850    31.266549  -0.39280834            0  -0.34431012   -27.047587 
   21900    30.042516  -0.39088516            0  -0.34428556     100.3583 
   21950    32.896729  -0.39538767            0  -0.34436084    138.56896 
   22000    31.401027  -0.39298639            0  -0.34427958    79.855417 
   22050    36.107259  -0.40036241            0  -0.34435565    57.507451 
   22100    32.738781  -0.39506473            0  -0.34428289    67.550062 
   22150    27.654456  -0.38716108            0  -0.34426565    403.03042 
   22200    22.135052  -0.37861061            0  -0.34427645    305.90826 
   22250    28.723817  -0.38883616            0  -0.34428202    124.19895 
   22300    29.227453  -0.38966063            0   -0.3443253   -61.122219 
   22350    38.922411  -0.40466731            0  -0.34429391    282.17004 
   22400      31.2424  -0.39279658            0  -0.34433581     167.4649 
   22450    31.015717  -0.39236632            0  -0.34425717    7.2689761 
   22500    19.508884  -0.37453135            0   -0.3442707   -85.734832 
   22550    48.464248  -0.41947538            0  -0.34430144    1.5543432 
   22600    35.473619   -0.3993168            0   -0.3442929    -267.9319 
   22650     40.27559  -0.40678261            0  -0.34431026   -153.23482 
   22700    18.111887  -0.37235559            0  -0.34426185    97.878467 
   22750    25.119861  -0.38324574            0  -0.34428177    97.534042 
   22800    21.108244  -0.37703469            0  -0.34429323   -35.586587 
   22850     22.20906  -0.37871776            0  -0.34426881   -200.46917 
   22900    26.168583  -0.38489439            0  -0.34430373    20.457653 
   22950    29.886021   -0.3906299            0  -0.34427305     210.1031 
   23000    31.087642  -0.39256969            0  -0.34434897    72.152068 
   23050    27.370771  -0.38675478            0  -0.34429938    16.949855 
   23100    27.595489  -0.38711741            0  -0.34431345    77.665354 
   23150     21.96586  -0.37834275            0  -0.34427103    12.167483 
   23200     30.97386  -0.39237277            0  -0.34432854    152.00532 
   23250     22.62583  -0.37936357            0  -0.34426815   -141.97068 
   23300    22.755531  -0.37955526            0  -0.34425866   -122.60334 
   23350    21.453161  -0.37755788            0  -0.34428141     -19.4644 
   23400    21.449895  -0.37753208            0  -0.34426068     234.1185 
   23450    26.442573  -0.38527646            0  -0.34426081    3.8718692 
   23500    25.022989  -0.38309965            0  -0.34428595   -113.33733 
   23550    19.536441  -0.37456178            0  -0.34425838   -208.67978 
   23600    25.156793  -0.38332711            0  -0.34430586   -65.533725 
   23650    21.037363  -0.37687867            0  -0.34424716    78.730073 
   23700    28.643168  -0.38874588            0  -0.34431684   -101.41087 
   23750    27.477348  -0.38694158            0  -0.34432087    19.526598 
   23800    28.087694  -0.38789928            0  -0.34433185    67.803176 
   23850    29.435384  -0.38997618            0  -0.34431831   -71.957828 
   23900     23.93977  -0.38140176            0  -0.34426826    104.71558 
   23950    24.846986   -0.3828237            0    -0.344283   -91.945696 
   24000    32.807326  -0.39521915            0  -0.34433099    39.022837 
   24050    18.297294  -0.37264494            0  -0.34426361   -28.210334 
   24100    32.472051  -0.39467699            0  -0.34430889    -2.812515 
   24150    23.139228   -0.3801706            0  -0.34427884    11.447598 
   24200    23.920281  -0.38140926            0  -0.34430599     1.896593 
   24250    28.270432  -0.38813919            0  -0.34428831   -19.433925 
   24300    29.016335  -0.38928637            0  -0.34427851   -20.894312 
   24350    14.114849  -0.36613013            0  -0.34423628    70.127346 
   24400    27.658903  -0.38720321            0  -0.34430089    187.37392 
   24450    21.057975  -0.37692202            0  -0.34425854    31.652657 
   24500    23.934401  -0.38141166            0  -0.34428649    23.040402 
   24550    30.283496  -0.39127326            0  -0.34429987   -106.90426 
   24600    31.138597  -0.39260829            0  -0.34430853    233.72699 
   24650    16.238279  -0.36945549            0  -0.34426794    84.835983 
   24700    22.149414  -0.37863657            0  -0.34428014    99.190244 
   24750    22.745095   -0.3795422            0  -0.34426179    84.105992 
   24800    28.507535  -0.38852467            0  -0.34430601    28.297654 
   24850     29.51137  -0.39007025            0  -0.34429453    7.3729131 
   24900    15.368949  -0.36806861            0   -0.3442295   -5.8464878 
   24950    25.443549   -0.3837518            0  -0.34428576   -112.93779 
   25000    26.700775  -0.38569502            0  -0.34427886   -44.703325 
   25050    26.950286  -0.38609846            0  -0.34429528    -28.44922 
   25100    25.640255  -0.38406947            0  -0.34429831   -1.0832075 
   25150    31.439512  -0.39305283            0  -0.34428632     94.45354 
   25200    16.229795  -0.36939628            0  -0.34422189    151.92691 
   25250    25.734125  -0.38420028            0  -0.34428352   -33.896239 
   25300    17.554012  -0.37149074            0  -0.34426233   -255.77008 
   25350    27.138174   -0.3863469            0  -0.34425229   -28.827767 
   25400    25.696702  -0.38412622            0  -0.34426751   -32.054456 
   25450    27.068381  -0.38629723            0  -0.34431088    11.857959 
   25500    26.805968  -0.38592654            0  -0.34434722    26.925971 
   25550     34.86588   -0.3984337            0  -0.34435248    147.49197 
   25600    18.186138  -0.37249358            0  -0.34428467    25.692272 
   25650    25.954359  -0.38454815            0  -0.34428978    22.754531 
   25700    25.490112   -0.3838019            0  -0.34426363    11.232426 
   25750    20.334155  -0.37582039            0  -0.34427964    130.22906 
   25800    23.265206  -0.38039611            0  -0.34430894   -23.274401 
   25850    25.946222  -0.38450409            0  -0.34425834    110.52282 
   25900    28.785732  -0.38898378            0  -0.34433361    207.13291 
   25950    18.306465  -0.37265382            0  -0.34425826    10.449403 
   26000    25.747685  -0.38420761            0  -0.34426981    120.42727 
   26050    24.460991  -0.38224749            0  -0.34430552    87.026924 
   26100     22.29887  -0.37886166            0   -0.3442734    55.552592 
   26150    21.856234  -0.37817668            0  -0.34427499    24.554113 
   26200     25.44794  -0.38374169            0  -0.34426884    171.49864 
   26250    19.763095  -0.37492414            0  -0.34426918   -79.418326 
   26300    26.072885  -0.38470933            0  -0.34426711    9.4663601 
   26350    26.874114  -0.38596081            0  -0.34427578    59.495523 
   26400     35.93861  -0.40004053            0  -0.34429537    64.006687 
   26450    34.279222  -0.39744693            0  -0.34427568   -129.32626 
   26500    31.493254   -0.3931656            0  -0.34431573    48.735468 
   26550    37.734988  -0.40284288            0  -0.34431132   -87.888644 
   26600    33.117595  -0.39565038            0  -0.34428096    39.930922 
   26650    33.296969  -0.39591841            0  -0.34427076    82.288576 
   26700    29.488039  -0.39002226            0  -0.34428272    16.132947 
   26750    21.448575  -0.37756453            0  -0.34429518   -55.096227 
   26800    24.963297  -0.38297773            0  -0.34425662    249.16402 
   26850    35.094678  -0.39869583            0  -0.34425971    348.68329 
   26900    25.250975  -0.38347353            0  -0.34430619    58.045224 
   26950    41.854642  -0.40924719            0  -0.34432555    101.08328 
   27000    30.145922  -0.39106993            0  -0.34430994   -105.75071 
   27050    36.333724  -0.40060698            0  -0.34424895    358.22058 
   27100    19.482096  -0.37450359            0  -0.34428449    109.05892 
   27150    28.499685  -0.38847236            0  -0.34426588   -27.411273 
   27200    41.186811  -0.40820593            0  -0.34432017   -114.87825 
   27250    28.608709  -0.38867815            0  -0.34430256   -14.456289 
   27300     33.18977   -0.3958313            0  -0.34434993   -97.724387 
   27350    43.899603  -0.41239771            0  -0.34430409    36.722603 
   27400    22.340128  -0.37893284            0  -0.34428058   -218.90525 
   27450     42.93223    -0.410899            0  -0.34430589   -43.322728 
   27500    22.202629  -0.37868687            0  -0.34424789   -1.2570336 
   27550    26.641553  -0.38557624            0  -0.34425195    133.22824 
   27600    34.680182  -0.39814142            0  -0.34434823    222.29732 
   27650     33.92801   -0.3969018            0  -0.34427533    51.047171 
   27700    31.683555  -0.39344718            0  -0.34430213   -123.11075 
   27750    41.477475  -0.40858582            0  -0.34424921   -74.511842 
   27800    27.184614  -0.38644552            0  -0.34427887    37.321085 
   27850    33.489425   -0.3962587            0  -0.34431252   0.49588423 
   27900    37.285245  -0.40211378            0  -0.34427982    218.77511 
   27950    26.006337  -0.38461769            0   -0.3442787   -82.005826 
   28000    42.135411   -0.4096531            0  -0.34429595   -217.14543 
   28050    36.181979  -0.40042489            0  -0.34430223   -157.94378 
   28100    29.653571  -0.39021915            0  -0.34422285    66.726203 
   28150    23.158162  -0.38018135            0  -0.34426022   -267.03643 
   28200    38.383197  -0.40384175            0  -0.34430474   -206.64128 
   28250    37.530283  -0.40251361            0  -0.34429957    79.679807 
   28300    29.784437  -0.39050814            0  -0.34430886   -14.558345 
   28350    31.172604    -0.392604            0   -0.3442515     135.8205 
   28400    24.237446  -0.38194036            0  -0.34434513    37.800286 
   28450    33.142489  -0.39573387            0  -0.34432583    95.018258 
   28500    23.057112   -0.3800379            0  -0.34427351   -43.251579 
   28550    38.785603  -0.40452055            0  -0.34435935    264.60047 
   28600     36.36093  -0.40071871            0  -0.34431848   -17.725584 
   28650    30.938902  -0.39225011            0   -0.3442601   -186.58647 
   28700    29.805367  -0.39054287            0  -0.34431112   -56.824468 
   28750    39.131208  -0.40502794            0  -0.34433068   -10.775598 
   28800    34.493902  -0.39790258            0  -0.34439833    26.885751 
   28850    32.907267  -0.39531869            0  -0.34427552    307.54963 
   28900    29.003236  -0.38927714            0   -0.3442896    189.50061 
   28950    19.952571   -0.3752083            0  -0.34425943    -174.2195 
   29000     43.27732  -0.41143809            0   -0.3443097  -0.82008221 
   29050    31.386313  -0.39295914            0  -0.34427515   -153.15823 
   29100    32.481519  -0.39462853            0  -0.34424574    12.244072 
   29150    28.401408  -0.38834252            0  -0.34428848    20.200891 
   29200    34.795188  -0.39825436            0  -0.34428279    72.818787 
   29250    36.501891  -0.40094652            0  -0.34432765    77.197484 
   29300     26.46734  -0.38530281            0  -0.34424874   -85.156348 
   29350    28.841916  -0.38904973            0  -0.34431241   -57.444533 
   29400     32.81619  -0.39520617            0  -0.34430426    57.830689 
   29450    24.888181   -0.3828605            0  -0.34425591   -19.674275 
   29500     33.40373  -0.39611186            0  -0.34429861    -77.67086 
   29550    44.352963  -0.41312364            0   -0.3443268   -2.6100247 
   29600    33.691172  -0.39657512            0  -0.34431601   -112.36222 
   29650    38.052189  -0.40331529            0  -0.34429171    245.12054 
   29700    28.532043   -0.3885383            0  -0.34428162   -120.47161 
   29750    47.379125   -0.4178342            0  -0.34434341   -34.893369 
   29800    27.242583  -0.38653679            0  -0.34428023   -28.434277 
   29850    23.201994  -0.38026643            0  -0.34427731   -122.18906 
   29900    41.210496  -0.40824476            0  -0.34432226    149.22291 
   29950    38.196317  -0.40355849            0  -0.34431135    139.07835 
   30000    23.178341  -0.38023139            0  -0.34427897   -194.07609 
   30050    36.026803  -0.40024151            0  -0.34435955    99.174454 
   30100    32.578851  -0.39480832            0  -0.34427455    375.75672 
   30150    19.869118  -0.37510712            0   -0.3442877    42.556617 
   30200    34.260237  -0.39739669            0  -0.34425489   -66.461728 
   30250    42.520551  -0.41023837            0  -0.34428382   -222.63454 
   30300    27.518835  -0.38697192            0  -0.34428686   -245.30621 
   30350    36.494768  -0.40092727            0  -0.34431944    -31.24477 
   30400     36.08477  -0.40031453            0  -0.34434266    260.66286 
   30450    34.662526  -0.39807929            0   -0.3443135    147.10216 
   30500    33.355461  -0.39604757            0  -0.34430919   -217.28661 
   30550     44.34241  -0.41310841            0  -0.34432793   -90.641081 
   30600    25.874504  -0.38442213            0  -0.34428762   -92.749322 
   30650    31.665499   -0.3934213            0  -0.34430425    6.8469689 
   30700    37.873839  -0.40308964            0   -0.3443427    15.138139 
   30750    32.374364  -0.39450893            0  -0.34429235    147.76441 
   30800    31.677638  -0.39343461            0  -0.34429874   -41.950012 
   30850    28.500683  -0.38848058            0  -0.34427255     -29.4932 
   30900    42.725182  -0.41059494            0  -0.34432298    19.358035 
   30950    31.075367  -0.39249562            0  -0.34429394   -50.382723 
   31000    27.783523  -0.38734691            0  -0.34425129    143.68029 
   31050    33.447834  -0.39620725            0  -0.34432559    71.387901 
   31100    31.984034  -0.39387887            0  -0.34426774   -90.797536 
   31150    26.785069  -0.38579485            0  -0.34424795    119.80967 
   31200    28.157294  -0.38795039            0    -0.344275    22.113893 
   31250    26.567819  -0.38549264            0  -0.34428272   -76.183178 
   31300    29.218219  -0.38961954            0  -0.34429852   -138.32911 
   31350    28.080539  -0.38786148            0  -0.34430514   -86.870785 
   31400     38.81891  -0.40451186            0    -0.344299    162.99833 
   31450    25.743385  -0.38420881            0  -0.34427769   -243.13646 
   31500    34.971975  -0.39854364            0  -0.34429785    -101.6302 
   31550    15.069659  -0.36756161            0  -0.34418673    41.722557 
   31600    41.359167  -0.40843355            0  -0.34428044    48.954734 
   31650    30.486497  -0.39155753            0  -0.34426926   -25.244903 
   31700    30.067738  -0.39095811            0  -0.34431939    79.810628 
   31750    34.574015   -0.3979154            0  -0.34428689    134.78805 
   31800    21.808535  -0.37809584            0  -0.34426815   -53.699647 
   31850    41.036783  -0.40792762            0  -0.34427457    89.213357 
   31900    30.656369  -0.39182901            0  -0.34427725   -189.46348 
   31950    29.257777  -0.38966807            0  -0.34428569   -62.004375 
   32000    37.555301  -0.40258896            0  -0.34433612   -103.86834 
   32050    35.883741  -0.39991642            0  -0.34425637    183.87788 
   32100    37.180387  -0.40198718            0  -0.34431587   0.27931691 
   32150    20.664461  -0.37631241            0  -0.34425931   -233.01709 
   32200    39.502663  -0.40564201            0  -0.34436857    57.523194 
   32250    33.521923  -0.39630916            0  -0.34431258    117.59489 
   32300    33.905373  -0.39692419            0  -0.34433282    49.373154 
   32350    27.161862  -0.38640721            0  -0.34427585   -69.313007 
   32400    37.524279  -0.40249066            0  -0.34428594   -91.439442 
   32450    40.133714  -0.40656469            0  -0.34431242   -150.07132 
   32500    27.857531   -0.3874804            0  -0.34426997   -420.94699 
   32550    41.106888  -0.40806223            0  -0.34430044    28.737188 
   32600    37.976579  -0.40321416            0  -0.34430786    369.21105 
   32650    25.899555  -0.38442308            0  -0.34424971   -201.24235 
   32700    30.994357  -0.39238063            0  -0.34430461   -209.32106 
   32750    32.903846  -0.39534008            0  -0.34430221    42.635327 
   32800    30.996714  -0.39236447            0  -0.34428479   -73.149416 
   32850    23.217028  -0.38031149            0  -0.34429905    87.496142 
   32900    22.552627   -0.3792488            0  -0.34426693    114.51171 
   32950    23.652114  -0.38100345            0  -0.34431614    263.23655 
   33000    25.157186  -0.38330557            0  -0.34428372   -134.52288 
   33050    22.714842  -0.37948071            0  -0.34424722    1.5229286 
   33100    20.732356  -0.37643019            0  -0.34427178   -74.199243 
   33150    27.869502  -0.38751528            0  -0.34428629     146.1549 
   33200    29.826112  -0.39056547            0  -0.34430154    32.316711 
   33250    15.844472  -0.36884235            0  -0.34426565    -98.43328 
   33300    25.395464  -0.38366541            0  -0.34427395    -62.63914 
   33350    33.472783  -0.39626572            0  -0.34434536    173.57647 
   33400    24.984902   -0.3830448            0  -0.34429017    -87.61624 
   33450    18.441467  -0.37288161            0  -0.34427665    -172.7384 
   33500    27.422009  -0.38682928            0  -0.34429441    189.29651 
   33550    19.131762  -0.37397347            0  -0.34429778    219.52711 
   33600    21.471638  -0.37761119            0  -0.34430607   -27.641765 
   33650    22.850251  -0.37973499            0  -0.34429146   -96.679382 
   33700    26.624332  -0.38564564            0  -0.34434806    251.41921 
   33750    22.472068  -0.37914082            0   -0.3442839    10.130284 
   33800    33.008905  -0.39549075            0  -0.34428992   -153.24054 
   33850    15.016927  -0.36755537            0  -0.34426229   -63.507196 
   33900    26.532974  -0.38541443            0  -0.34425856    154.37659 
   33950    22.314194  -0.37886272            0  -0.34425069    190.67598 
   34000    24.048376  -0.38159883            0  -0.34429687    7.9424342 
   34050    24.624473  -0.38248143            0  -0.34428587     101.7798 
   34100    19.227417   -0.3740836            0  -0.34425954    110.83581 
   34150    23.598354  -0.38087546            0  -0.34427154   -19.238646 
   34200    33.274764  -0.39595934            0  -0.34434613    36.864298 
   34250    20.154052  -0.37553832            0  -0.34427693    -11.63289 
   34300     27.70051  -0.38724293            0  -0.34427607    15.103089 
   34350    24.208941  -0.38183454            0  -0.34428353    27.316137 
   34400     30.93814  -0.39227046            0  -0.34428164     12.08505 
   34450    41.612284  -0.40890815            0  -0.34436244    32.018863 
   34500     34.97848  -0.39854347            0  -0.34428759    99.784122 
   34550    29.909377  -0.39068522            0  -0.34429214    -89.44608 
   34600     43.41452  -0.41163818            0  -0.34429698   -250.37649 
   34650    20.746791  -0.37644766            0  -0.34426687   -89.534363 
   34700    44.067025  -0.41265545            0  -0.34430213    36.455068 
   34750    35.194835  -0.39889356            0  -0.34430208   -80.868572 
   34800     34.01607  -0.39700739            0  -0.34424433   -137.19968 
   34850    36.083824  -0.40029261            0   -0.3443222   -145.35038 
   34900    34.442535  -0.39774681            0  -0.34432225    50.921558 
   34950    28.790668  -0.38895021            0  -0.34429238    30.794805 
   35000    36.937506  -0.40167167            0   -0.3443771   -126.17666 
   35050    32.232163  -0.39427724            0  -0.34428123    75.413652 
   35100    31.447301  -0.39308018            0  -0.34430158    46.418812 
   35150    25.253741  -0.38343158            0  -0.34425995    66.032196 
   35200      38.7633  -0.40441411            0  -0.34428751    327.10081 
   35250    22.257387  -0.37880499            0  -0.34428108    118.69099 
   35300    33.805864  -0.39673414            0  -0.34429713   -37.024985 
   35350    27.020506  -0.38621466            0  -0.34430256      43.1188 
   35400    45.550788  -0.41498203            0  -0.34432721    211.80833 
   35450    23.361549  -0.38050724            0  -0.34427063    41.660737 
   35500     31.13599  -0.39249164            0  -0.34419593      32.3961 
   35550    24.442323  -0.38216794            0  -0.34425492   -154.75428 
   35600    32.253864  -0.39433491            0  -0.34430524    60.521333 
   35650    36.906725  -0.40156654            0  -0.34431971    60.110644 
   35700    26.284124  -0.38507163            0  -0.34430176   -65.507658 
   35750    32.167764  -0.39418367            0  -0.34428755     244.4507 
   35800    38.522138  -0.40401206            0  -0.34425953    28.226988 
   35850     24.23619  -0.38186734            0  -0.34427406   -225.07787 
   35900       41.841  -0.40919783            0  -0.34429735   -192.52904 
   35950    33.297025   -0.3959432            0  -0.34429546   -108.98707 
   36000    31.174258  -0.39265969            0  -0.34430462   -5.5116616 
   36050    17.647125  -0.37160445            0  -0.34423161    89.722331 
   36100    39.163808  -0.40503752            0  -0.34428969    130.85523 
   36150    33.977022  -0.39704087            0  -0.34433837     -54.3457 
   36200    28.124623  -0.38792566            0  -0.34430095    187.04905 
   36250    37.198948  -0.40201191            0  -0.34431181    25.814263 
   36300    25.896816    -0.384433            0  -0.34426389    102.80054 
   36350    30.624216  -0.39175956            0  -0.34425767    277.31764 
   36400    29.431699  -0.38997446            0  -0.34432231   -119.34375 
   36450    27.818927  -0.38746992            0  -0.34431938     94.42912 
   36500    18.827319  -0.37343602            0  -0.34423255    291.49211 
   36550    36.104409  -0.40028334            0  -0.34428101    -299.4465 
   36600    32.030479  -0.39399185            0  -0.34430867   -242.85799 
   36650    30.711211  -0.39194742            0  -0.34431059    89.920847 
   36700    42.328244  -0.41000565            0  -0.34434939    110.60019 
   36750    32.384297  -0.39450661            0  -0.34427462   -182.75409 
   36800    34.112528  -0.39718639            0   -0.3442737   -12.809647 
   36850    35.536807  -0.39941135            0  -0.34428943    185.47915 
   36900    25.671811  -0.38409149            0  -0.34427139    -171.3986 
   36950    41.569863  -0.40881215            0  -0.34433223   -130.42443 
   37000    35.408012  -0.39920345            0  -0.34428132    99.176484 
   37050    42.120847  -0.40969327            0  -0.34435871    165.87004 
   37100    27.282051  -0.38659947            0  -0.34428169   -14.222609 
   37150    29.655344  -0.39032095            0   -0.3443219    197.43968 
   37200    25.809751  -0.38432296            0  -0.34428889   -32.272474 
   37250    32.591318  -0.39485621            0  -0.34430311   -99.504538 
   37300    35.703683  -0.39969411            0  -0.34431335    255.92039 
   37350    36.018619    -0.400191            0  -0.34432174   -175.96181 
   37400    33.404272   -0.3960918            0  -0.34427771   -61.690966 
   37450    33.759497  -0.39661337            0  -0.34424828    93.761812 
   37500    27.233053  -0.38655115            0  -0.34430937    -12.83898 
   37550    31.300406  -0.39282947            0  -0.34427873    133.70401 
   37600    31.067109  -0.39245714            0  -0.34426827   -13.224409 
   37650     33.24009   -0.3958495            0  -0.34429008    249.58576 
   37700    35.938719  -0.40006403            0   -0.3443187    -51.76437 
   37750    22.823272  -0.37966409            0  -0.34426242    -236.9432 
   37800    40.236847   -0.4067254            0  -0.34431315    58.384535 
   37850    35.526615  -0.39940144            0  -0.34429534    154.08051 
   37900    24.791253  -0.38273393            0  -0.34427968   -140.59896 
   37950    47.537142  -0.41807965            0  -0.34434376    70.800164 
   38000    29.757948  -0.39044856            0  -0.34429036   -132.21255 
   38050    31.740131  -0.39350988            0  -0.34427707   -34.786151 
   38100    33.764947  -0.39673289            0  -0.34435935    217.61227 
   38150    35.956588  -0.40010924            0  -0.34433619    20.720576 
   38200    26.508287  -0.38539247            0  -0.34427489   -83.226609 
   38250    32.116091  -0.39411402            0  -0.34429805    138.30021 
   38300    39.595496  -0.40576804            0  -0.34435061     162.4183 
   38350    36.665153  -0.40124669            0  -0.34437458   -143.22999 
   38400    35.022586  -0.39861983            0  -0.34429553     124.8031 
   38450    21.633708  -0.37782833            0  -0.34427182    12.913089 
   38500    40.121688  -0.40654074            0  -0.34430712   -100.66968 
   38550    31.781239  -0.39357525            0  -0.34427868     54.51732 
   38600     33.26832  -0.39592716            0  -0.34432395    150.14268 
   38650    35.988127  -0.40010601            0  -0.34428405    164.68644 
   38700    33.200922  -0.39581623            0  -0.34431755   -195.68774 
   38750    25.699276  -0.38411153            0  -0.34424883   -9.0030243 
   38800    36.431753  -0.40084635            0  -0.34433626    111.48054 
   38850    39.811176   -0.4060811            0  -0.34432912    4.5599146 
   38900    32.846716  -0.39526023            0  -0.34431097   -119.67492 
   38950    35.657496  -0.39961682            0   -0.3443077   -144.04116 
   39000    32.681302  -0.39495362            0  -0.34426095   -32.524787 
   39050    25.420331    -0.383715            0  -0.34428497   -113.82695 
   39100    22.639539  -0.37937114            0  -0.34425446    27.902668 
   39150    19.004011  -0.37377232            0  -0.34429479    191.55242 
   39200    18.566257  -0.37307794            0  -0.34427941    81.651072 
   39250    20.393272  -0.37589589            0  -0.34426344    182.33791 
   39300    13.927555  -0.36587964            0  -0.34427631   -90.452901 
   39350    24.709249  -0.38266614            0  -0.34433909    171.47146 
   39400    25.286333  -0.38348041            0  -0.34425823   -117.15029 
   39450    21.291119  -0.37724308            0  -0.34421796    44.533734 
   39500    29.808831  -0.39055949            0  -0.34432237    155.09017 
   39550    24.646291  -0.38249069            0   -0.3442613    68.415109 
   39600    18.170868  -0.37246001            0  -0.34427478   -211.09097 
   39650    31.630902  -0.39332884            0  -0.34426546   -43.445577 
   39700    26.035154  -0.38465755            0  -0.34427385   -8.3320128 
   39750    24.963155   -0.3829985            0  -0.34427761   -22.465772 
   39800    18.543825   -0.3730419            0  -0.34427817    -40.08903 
   39850    17.984884  -0.37217011            0  -0.34427336   -95.671152 
   39900    33.419785  -0.39609517            0  -0.34425702    292.33203 
   39950     40.17966     -0.40666            0  -0.34433645   -80.913297 
   40000    29.491587  -0.38996864            0  -0.34422359   -2.7349702 
   40050     27.26286  -0.38656507            0  -0.34427706   -265.73794 
   40100    43.302632  -0.41155816            0  -0.34439051   -3.0395152 
   40150    30.745338  -0.39203133            0  -0.34434157    247.99376 
   40200    44.112846  -0.41275589            0  -0.34433149    7.1502557 
   40250     20.64058  -0.37626496            0  -0.34424891    41.572556 
   40300    45.394583  -0.41475827            0  -0.34434574    127.97675 
   40350    17.114153  -0.37077536            0  -0.34422923    76.351713 
   40400    31.909466  -0.39378285            0  -0.34428739    21.926319 
   40450    41.393121  -0.40851919            0  -0.34431342   -249.66766 
   40500    25.137721    -0.383263            0  -0.34427133    27.651413 
   40550     35.57655  -0.39949946            0   -0.3443159    158.48878 
   40600    22.989152  -0.37991188            0  -0.34425291   -23.635049 
   40650    38.612909  -0.40420639            0  -0.34431307    8.6297398 
   40700    29.702591  -0.39036123            0   -0.3442889   -67.861044 
   40750    35.752507  -0.39976216            0  -0.34430567    37.993981 
   40800    37.256574   -0.4020939            0  -0.34430442   -59.530599 
   40850    36.511277  -0.40097671            0  -0.34434327    -133.8801 
   40900    26.796336  -0.38584527            0  -0.34428089   -81.689669 
   40950    36.270521   -0.4005889            0   -0.3443289     116.7674 
   41000    30.488788  -0.39156863            0  -0.34427681 -0.029105886 
   41050    37.959025  -0.40313746            0  -0.34425839     -198.587 
   41100    29.970817  -0.39076678            0  -0.34427839   -98.491913 
   41150    39.086975  -0.40497014            0  -0.34434148   -54.164597 
   41200     33.90489  -0.39686947            0  -0.34427886   -142.54043 
   41250    33.016534  -0.39549773            0  -0.34428507   -115.03687 
   41300    29.967575  -0.39076827            0  -0.34428491   -165.92411 
   41350     36.95036  -0.40161253            0  -0.34429802   -72.175109 
   41400    34.015066  -0.39707115            0  -0.34430964   -170.10101 
   41450    37.257106  -0.40209622            0  -0.34430591   -100.23673 
   41500    32.938392  -0.39535991            0  -0.34426846      89.5723 
   41550    29.452491  -0.38999468            0  -0.34431028    3.3904023 
   41600    39.614573  -0.40578813            0   -0.3443411    24.656234 
   41650    29.266418  -0.38968962            0  -0.34429384     66.60257 
   41700    33.020338  -0.39557591            0  -0.34435735    280.29198 
   41750    34.546982  -0.39789714            0  -0.34431057    246.79013 
   41800    29.567005  -0.39013134            0  -0.34426931    -192.3312 
   41850    33.305361  -0.39595667            0    -0.344296   -270.30972 
   41900    36.278611  -0.40056518            0  -0.34429264    65.025837 
   41950    27.820987  -0.38747644            0  -0.34432271    124.74016 
   42000    36.911118  -0.40157036            0  -0.34431672   -75.442806 
   42050    30.280849   -0.3912633            0  -0.34429402    14.399349 
   42100     29.01819  -0.38926183            0  -0.34425109    240.75197 
   42150    25.363285  -0.38363869            0  -0.34429715    43.379274 
   42200    38.835835  -0.40458122            0  -0.34434212   -84.459446 
   42250    41.743146  -0.40902889            0  -0.34428019   -58.637909 
   42300    22.706868  -0.37948554            0  -0.34426443   -170.76737 
   42350    35.709718  -0.39966186            0  -0.34427174    35.266929 
   42400    15.843847  -0.36884089            0  -0.34426516   -113.56109 
   42450    20.260034  -0.37567731            0  -0.34425153    273.94559 
   42500    23.004869   -0.3799715            0  -0.34428815    273.20684 
   42550     27.10385  -0.38632043            0  -0.34427906    256.19001 
   42600    15.031033   -0.3675733            0  -0.34425834   -242.46896 
   42650    34.852608  -0.39834891            0  -0.34428827   -94.789283 
   42700    20.821438  -0.37654098            0   -0.3442444    88.325805 
   42750    20.312051  -0.37580169            0  -0.34429522   -123.94675 
   42800    24.040226  -0.38156092            0  -0.34427161    121.54861 
   42850    17.286764  -0.37107226            0  -0.34425839   -38.004877 
   42900    21.351773   -0.3773916            0  -0.34427241   -108.55567 
   42950    25.237601  -0.38340512            0  -0.34425853  -0.15896477 
   43000    24.620333  -0.38244553            0   -0.3442564    18.391539 
   43050    32.290604  -0.39435145            0   -0.3442648   -28.259283 
   43100    31.979592  -0.39390603            0  -0.34430179    -255.8177 
   43150    46.577141  -0.41659444            0  -0.34434762   -1.1417627 
   43200    35.043081  -0.39868845            0  -0.34433236    89.750361 
   43250     20.74119  -0.37641561            0   -0.3442435    30.754308 
   43300    21.824978  -0.37811114            0  -0.34425794    192.34933 
   43350    39.579015  -0.40570468            0  -0.34431281    163.28008 
   43400    27.952272  -0.38762056            0  -0.34426318   -106.59696 
   43450    26.365725  -0.38516714            0  -0.34427069   -9.3627647 
   43500    21.251779  -0.37723336            0  -0.34426926   -123.70471 
   43550    42.334497  -0.40994819            0  -0.34428224     38.66796 
   43600    32.404304  -0.39456223            0  -0.34429921    58.514254 
   43650    22.127939  -0.37856318            0  -0.34424005    110.02489 
   43700    26.254715  -0.38501942            0  -0.34429516    138.30773 
   43750    27.474513  -0.38690575            0  -0.34428944    138.39678 
   43800    31.819557  -0.39365781            0  -0.34430181    139.35088 
   43850     30.13607  -0.39104936            0  -0.34430465   -1.2432173 
   43900    33.914115  -0.39688178            0  -0.34427685    10.540022 
   43950    24.058336  -0.38159454            0  -0.34427713    -79.10774 
   44000    31.681064  -0.39341369            0  -0.34427251    216.52667 
   44050     27.07968  -0.38629276            0  -0.34428888    181.08145 
   44100    33.660897  -0.39651705            0   -0.3443049   -249.16634 
   44150    31.505302  -0.39310412            0  -0.34423556    74.801804 
   44200    37.281475  -0.40215442            0  -0.34432632    138.04267 
   44250    31.328784  -0.39286374            0  -0.34426899   -13.446316 
   44300    26.518538   -0.3854297            0  -0.34429622   -209.06936 
   44350    40.312684  -0.40686671            0  -0.34433683    299.33563 
   44400    42.557976  -0.41030205            0  -0.34428945    253.99222 
   44450    26.691732  -0.38567882            0  -0.34427669   -146.56671 
   44500    23.602366  -0.38093024            0   -0.3443201   -101.28627 
   44550    21.980101  -0.37837071            0   -0.3442769     16.10356 
   44600    23.748676  -0.38112823            0  -0.34429114     234.6441 
   44650    21.555912  -0.37771561            0  -0.34427976   -168.38047 
   44700    18.235785  -0.37253974            0  -0.34425382   -43.609618 
   44750    32.120899  -0.39414531            0  -0.34432188    92.446219 
   44800    32.202249  -0.39424234            0  -0.34429273    51.026574 
   44850    36.841677  -0.40147469            0  -0.34432877    286.80176 
   44900    27.512256  -0.38700581            0  -0.34433095   -108.70241 
   44950     41.22963  -0.40825218            0  -0.34430001    101.54688 
   45000    27.835886  -0.38745699            0  -0.34428014    53.949611 
   45050    18.898595   -0.3735866            0  -0.34427258   -232.83571 
   45100    22.770742  -0.37959718            0  -0.34427699    111.81869 
   45150    20.497334  -0.37607961            0  -0.34428575    261.22338 
   45200     23.76343  -0.38114747            0  -0.34428749    56.277803 
   45250    26.346161  -0.38513608            0  -0.34426998   -15.762715 
   45300    47.999133  -0.41875892            0  -0.34430642    165.81996 
   45350    29.689102  -0.39038542            0  -0.34433401   -67.079508 
   45400    27.121069  -0.38637461            0  -0.34430653    121.29249 
   45450    39.925857   -0.4062616            0  -0.34433174    -6.221164 
   45500    33.285876  -0.39595156            0  -0.34432111    56.694781 
   45550    30.478595  -0.39153433            0  -0.34425831     244.6471 
   45600    28.155907  -0.38795603            0  -0.34428279   -182.61147 
   45650    36.895493  -0.40151397            0  -0.34428457   -173.54945 
   45700    28.075094  -0.38780026            0  -0.34425237   -205.87398 
   45750    37.758754  -0.40288799            0  -0.34431957    38.315378 
   45800    33.626066  -0.39646626            0  -0.34430814    64.055146 
   45850    24.510219  -0.38225959            0  -0.34424126    93.522343 
   45900    36.198761  -0.40045731            0  -0.34430862   -71.604465 
   45950    29.879444  -0.39063039            0  -0.34428373    -201.7847 
   46000    37.007937  -0.40167889            0  -0.34427507   -190.07118 
   46050    20.223047  -0.37559296            0  -0.34422455    69.110872 
   46100    36.904655  -0.40156601            0   -0.3443224    94.610614 
   46150    28.717164  -0.38884044            0  -0.34429662   -168.21746 
   46200    43.708409  -0.41210349            0  -0.34430642   -250.34946 
   46250    31.708321  -0.39346108            0  -0.34427762   -236.57672 
   46300     30.54265  -0.39169323            0  -0.34431786    138.58152 
   46350    33.811944   -0.3967214            0  -0.34427495   -52.867332 
   46400    29.291745  -0.38969984            0  -0.34426478   -128.18856 
   46450    35.312817  -0.39907399            0  -0.34429952    2.1976352 
   46500    33.886595  -0.39689718            0  -0.34433494    17.751023 
   46550    33.557643  -0.39634164            0  -0.34428965   -246.93833 
   46600    25.575048  -0.38392787            0  -0.34425786   -97.339627 
   46650    36.474768  -0.40087994            0  -0.34430313    55.706205 
   46700    29.806308  -0.39054655            0  -0.34431334   -3.9947877 
   46750    24.996273  -0.38304335            0  -0.34427108    106.83053 
   46800    20.570168  -0.37612865            0  -0.34422181     367.7918 
   46850    28.869639  -0.38907422            0  -0.34429389   -140.97769 
   46900    33.991129  -0.39698324            0  -0.34425887   -230.76647 
   46950    34.055452  -0.39712462            0  -0.34430047   -175.98428 
   47000    37.124046  -0.40184949            0  -0.34426557    169.86933 
   47050    33.923095  -0.39690274            0  -0.34428389    26.036824 
   47100    29.830419  -0.39056352            0  -0.34429291   -163.66195 
   47150    36.180799  -0.40040012            0   -0.3442793    257.11677 
   47200    34.631633   -0.3979881            0  -0.34427022    139.72641 
   47250     35.94233  -0.40008958            0  -0.34433865   -167.91289 
   47300    34.338573  -0.39757099            0  -0.34430769    27.041457 
   47350    25.305259   -0.3835482            0  -0.34429666    29.441797 
   47400    43.467136   -0.4117284            0  -0.34430558   -78.955872 
   47450    24.953776  -0.38296192            0  -0.34425558   -73.396412 
   47500    40.802962  -0.40761626            0   -0.3443259    131.36801 
   47550     28.69156  -0.38878687            0  -0.34428276    179.78984 
   47600    14.261946  -0.36635322            0   -0.3442312   -125.48885 
   47650    32.159172  -0.39413909            0   -0.3442563   -115.33123 
   47700    37.194262  -0.40194013            0   -0.3442473   -19.343971 
   47750    30.943284  -0.39228313            0  -0.34428633    -125.1063 
   47800    32.508847  -0.39472872            0  -0.34430354    136.22708 
   47850    29.126375  -0.38941294            0  -0.34423439    187.11895 
   47900    31.607457  -0.39333612            0  -0.34430911   -216.81766 
   47950    34.575649  -0.39800835            0  -0.34437731    71.868733 
   48000    32.600003  -0.39484248            0   -0.3442759     113.2652 
   48050    30.032475  -0.39088988            0  -0.34430586    134.15632 
   48100    32.383539  -0.39449848            0  -0.34426767   -141.45181 
   48150    27.424063  -0.38678382            0  -0.34424576   -222.67949 
   48200    41.565884  -0.40878182            0  -0.34430807   -77.015398 
   48250    36.608667  -0.40111306            0  -0.34432856   -60.039927 
   48300    39.226672  -0.40516867            0  -0.34432332   -256.43279 
   48350    36.589537  -0.40106638            0  -0.34431155    15.322217 
   48400    29.086294  -0.38937035            0  -0.34425396    108.77079 
   48450      28.9997  -0.38928021            0  -0.34429814    -259.6548 
   48500    36.695565  -0.40123068            0  -0.34431139    15.943572 
   48550    25.510016  -0.38385062            0  -0.34428148     114.7096 
   48600    41.119367  -0.40812484            0  -0.34434369    167.53768 
   48650    26.786202  -0.38583832            0  -0.34428966    38.591803 
   48700    32.829024  -0.39522933            0  -0.34430751   -2.8013579 
   48750    46.354293  -0.41624499            0  -0.34434384    60.542374 
   48800    24.114075  -0.38167665            0  -0.34427278    43.569734 
   48850    38.557955  -0.40405807            0  -0.34424998    91.210166 
   48900    18.968359  -0.37370222            0  -0.34427999   -53.288819 
   48950    30.177872   -0.3910973            0  -0.34428774     6.354283 
   49000    26.677725  -0.38565542            0  -0.34427502    -46.02049 
   49050    35.890436  -0.39992134            0   -0.3442509    28.007784 
   49100    26.065738  -0.38470754            0  -0.34427641    65.387223 
   49150    39.581586  -0.40571412            0  -0.34431826   -36.955554 
   49200    31.824828  -0.39368597            0  -0.34432178    18.161639 
   49250    36.114734   -0.4003365            0  -0.34431815     55.18322 
   49300    31.692039  -0.39347002            0  -0.34431181   -46.502294 
   49350    28.735426  -0.38887049            0  -0.34429834    32.438222 
   49400    29.428671  -0.38992757            0  -0.34428012   -50.114815 
   49450    39.981702  -0.40630707            0  -0.34429058   -164.87569 
   49500    35.068787   -0.3987222            0  -0.34432624   -148.98373 
   49550    35.967015  -0.40008637            0  -0.34429716   -184.43759 
   49600    34.534557   -0.3978621            0  -0.34429479   -115.20241 
   49650    46.981011  -0.41718149            0  -0.34430822   -172.89824 
   49700    27.740514  -0.38731123            0  -0.34428231   -67.800346 
   49750     32.79343  -0.39517783            0  -0.34431123   -73.800078 
   49800       33.651  -0.39649683            0  -0.34430004    148.54334 
   49850    35.861332  -0.40000135            0  -0.34437605    53.581308 
   49900     24.12884  -0.38172683            0  -0.34430006   -53.565031 
   49950    28.543079  -0.38858655            0  -0.34431276    133.14823 
   50000    45.481578  -0.41481965            0  -0.34427218    68.419305 
   50050    23.312559  -0.38045912            0   -0.3442985   -283.35332 
   50100    35.319261  -0.39908799            0  -0.34430352   -71.305243 
   50150     37.75363   -0.4028882            0  -0.34432772    101.58008 
   50200    24.526019  -0.38232712            0  -0.34428428    84.015809 
   50250    36.907259  -0.40154891            0  -0.34430126     140.1267 
   50300    22.848715  -0.37972009            0  -0.34427895   -68.359955 
   50350    37.639123  -0.40272534            0  -0.34434247    41.860137 
   50400    36.599518  -0.40107165            0  -0.34430135    38.318292 
   50450    25.015561  -0.38310174            0  -0.34429956   -13.484173 
   50500     40.62995   -0.4072997            0   -0.3442777   -126.56365 
   50550    22.293403  -0.37882788            0   -0.3442481    123.95296 
   50600    30.042436  -0.39087909            0  -0.34427962    431.31891 
   50650    21.897305  -0.37823217            0  -0.34426679   -8.7926665 
   50700    24.804747  -0.38275511            0  -0.34427992   -42.020661 
   50750    34.111921  -0.39719648            0  -0.34428473   -119.93629 
   50800     42.50227  -0.41021962            0  -0.34429343   -134.44796 
   50850    32.198393   -0.3942511            0  -0.34430747    166.75887 
   50900    30.869933  -0.39217853            0   -0.3442955    126.78141 
   50950    35.065466  -0.39867537            0  -0.34428456   -153.41403 
   51000    30.982226  -0.39229434            0  -0.34423713  -0.73552065 
   51050     31.54345  -0.39324322            0  -0.34431549   -121.12949 
   51100    34.662509  -0.39808823            0  -0.34432246    58.719547 
   51150     28.08305  -0.38782369            0  -0.34426346    57.244913 
   51200    32.982994  -0.39547991            0  -0.34431927    115.55685 
   51250    30.569062  -0.39169954            0   -0.3442832   -254.00621 
   51300    36.391439  -0.40070046            0  -0.34425291   -3.6204135 
   51350    18.779179  -0.37336893            0  -0.34424013    193.34811 
   51400    19.362032  -0.37428005            0  -0.34424718    194.70558 
   51450    18.060039  -0.37227454            0  -0.34426122   -147.05757 
   51500    30.587758  -0.39173177            0  -0.34428643    8.3801663 
   51550    22.986421  -0.37994607            0  -0.34429133    37.531323 
   51600     24.28573  -0.38194884            0  -0.34427872    147.29374 
   51650    27.154469  -0.38643787            0  -0.34431798    5.9205882 
   51700    17.995225  -0.37221772            0  -0.34430493    106.68195 
   51750    31.186274  -0.39267872            0  -0.34430502   -59.351816 
   51800    23.266952    -0.380344            0  -0.34425413    -46.40228 
   51850     39.57894  -0.40569448            0  -0.34430272    50.631386 
   51900      29.7343  -0.39040359            0  -0.34428207    105.55843 
   51950    38.066082  -0.40331454            0  -0.34426941    156.05933 
[...]
  987600    41.078128   -0.4080285            0  -0.34431132   -108.98223 
  987650     29.56999  -0.39014072            0  -0.34427407    110.81293 
  987700    34.152743  -0.39727877            0  -0.34430371   -2.3496358 
  987750    33.881976  -0.39685193            0  -0.34429687    32.203252 
  987800    31.363462   -0.3929587            0  -0.34431016    -129.3794 
  987850    23.780804  -0.38115459            0  -0.34426767 -0.027828281 
  987900    32.262857  -0.39430982            0   -0.3442662   -267.00353 
  987950    28.533553  -0.38850353            0  -0.34424452   -51.881559 
  988000    43.523321  -0.41189398            0  -0.34438401    2.0201341 
  988050    40.248921  -0.40678522            0  -0.34435424   -116.68216 
  988100    27.799244  -0.38739161            0   -0.3442716     7.570997 
  988150    36.836668  -0.40144911            0  -0.34431095    52.069157 
  988200     24.97469  -0.38301576            0  -0.34427698   -94.988965 
  988250    36.478798  -0.40084839            0  -0.34426534   -107.78999 
  988300    22.448666  -0.37909314            0  -0.34427253   -227.74295 
  988350    35.311632  -0.39906747            0  -0.34429483    328.03016 
  988400    37.820297  -0.40296767            0  -0.34430379   -41.011611 
  988450    22.121457  -0.37858278            0  -0.34426971   -299.44228 
  988500    51.440722  -0.42412556            0  -0.34433474   -220.96982 
  988550     44.88006   -0.4139933            0  -0.34437887   -108.55143 
  988600    30.324416  -0.39137934            0  -0.34434248   -123.35374 
  988650    33.824715  -0.39678176            0  -0.34431551    218.76102 
  988700    30.720896  -0.39194525            0   -0.3442934    226.39218 
  988750    34.271119  -0.39743778            0   -0.3442791   -22.890766 
  988800    33.405587  -0.39612736            0  -0.34431122   -67.770165 
  988850     21.45174  -0.37753412            0  -0.34425986    93.265564 
  988900      23.6461  -0.38097188            0   -0.3442939   -144.15823 
  988950    33.674591  -0.39652834            0  -0.34429495   -78.913295 
  989000    30.646755  -0.39179914            0  -0.34426229   -80.114443 
  989050    32.400165  -0.39456188            0  -0.34430528    138.63409 
  989100    34.288265  -0.39746169            0  -0.34427642    155.92032 
  989150    25.145498  -0.38329041            0  -0.34428668   -17.461476 
  989200    35.702859  -0.39972894            0  -0.34434946   -104.42005 
  989250    36.872556  -0.40160197            0  -0.34440815     477.2613 
  989300    25.586876  -0.38395525            0  -0.34426689      136.766 
  989350    30.215247  -0.39116745            0  -0.34429993   -19.579191 
  989400    40.683153  -0.40742926            0  -0.34432474    -82.03622 
  989450    32.057255  -0.39402419            0  -0.34429948    35.168922 
  989500    27.537808  -0.38695865            0  -0.34424416   -136.44817 
  989550     38.00739  -0.40321875            0  -0.34426466    28.535035 
  989600     24.91881  -0.38291775            0  -0.34426565   -256.04052 
  989650    39.066222    -0.404925            0  -0.34432854    16.826949 
  989700    33.890821  -0.39689958            0  -0.34433079    69.029371 
  989750    30.783725  -0.39202922            0  -0.34427991   -55.635007 
  989800    21.944461  -0.37828876            0  -0.34425023   -83.851922 
  989850    38.325626  -0.40378432            0  -0.34433661    8.8645704 
  989900    22.027296  -0.37841281            0  -0.34424579    136.67018 
  989950    36.241452   -0.4005233            0   -0.3443084   -77.639683 
  990000    29.976791  -0.39076236            0  -0.34426471   -162.27928 
  990050    38.647916  -0.40424046            0  -0.34429284   -106.26948 
  990100    27.320505  -0.38663446            0  -0.34425703   -26.683696 
  990150    34.718101  -0.39813846            0  -0.34428646    223.48127 
  990200    18.788207  -0.37341329            0  -0.34427049    107.29034 
  990250    25.209296  -0.38336965            0  -0.34426697   -145.50124 
  990300     40.43505  -0.40705101            0  -0.34433132    135.83275 
  990350    36.658387   -0.4012166            0  -0.34435498    483.30041 
  990400    21.205794   -0.3771437            0  -0.34425093   -61.200981 
  990450    36.904346  -0.40151032            0  -0.34426719   -33.673831 
  990500    25.270774  -0.38346565            0   -0.3442676   -294.57702 
  990550    44.382135  -0.41314756            0  -0.34430547   -120.19404 
  990600    34.269577  -0.39743569            0   -0.3442794   -27.540873 
  990650    22.155929  -0.37865404            0   -0.3442875   -136.93467 
  990700     28.77613  -0.38892631            0  -0.34429103   -62.742044 
  990750    30.248265  -0.39116341            0  -0.34424466   -10.568534 
  990800    38.368838  -0.40382473            0  -0.34430999   -93.597489 
  990850    25.015523  -0.38308548            0  -0.34428336   -280.74196 
  990900    55.692647  -0.43069799            0  -0.34431192   -33.681565 
  990950    23.476174  -0.38071394            0  -0.34429953    -152.3862 
  991000    25.811567  -0.38430165            0  -0.34426476    96.732799 
  991050    20.707532  -0.37639728            0  -0.34427737   -53.015529 
  991100    32.773775  -0.39513013            0  -0.34429402   -54.203396 
  991150    27.778178  -0.38739121            0  -0.34430387   -112.48782 
  991200    34.478787   -0.3977734            0   -0.3442926   -155.39846 
  991250    44.557275  -0.41341683            0  -0.34430307   -150.72297 
  991300    32.248021   -0.3942883            0  -0.34426769    -219.8383 
  991350    39.892858  -0.40623047            0  -0.34435179   -117.96717 
  991400    45.509843  -0.41494425            0  -0.34435294   -63.105566 
  991450    24.212401  -0.38182574            0  -0.34426935   -90.750875 
  991500    35.540749  -0.39941938            0  -0.34429135   -178.11742 
  991550    27.426514  -0.38678852            0  -0.34424665   -82.587527 
  991600    39.381284  -0.40539917            0  -0.34431401   -64.737683 
  991650     32.37473  -0.39448421            0  -0.34426707   -31.337061 
  991700    26.701012  -0.38566648            0  -0.34424996    86.642883 
  991750    15.411012  -0.36817103            0  -0.34426668   -213.39186 
  991800    32.846842  -0.39530002            0  -0.34435057    133.38637 
  991850    38.955451  -0.40471864            0  -0.34429399    79.648914 
  991900    26.069663  -0.38471172            0   -0.3442745    -78.56372 
  991950    36.364291    -0.400696            0  -0.34429055    57.210189 
  992000      24.5685  -0.38238172            0  -0.34427299    275.59388 
  992050    20.145216  -0.37549669            0    -0.344249    50.178593 
  992100    22.693576  -0.37947726            0  -0.34427676    24.276666 
  992150    22.132991  -0.37858707            0   -0.3442561   -26.540576 
  992200    27.458488  -0.38689279            0  -0.34430134   -55.907177 
  992250    25.806441  -0.38430465            0  -0.34427572    281.49875 
  992300    34.928542  -0.39855133            0  -0.34437291    241.11883 
  992350    19.062762   -0.3738595            0  -0.34429083   -107.92659 
  992400    26.078221  -0.38473142            0  -0.34428092   -137.65297 
  992450    28.518234  -0.38850186            0  -0.34426661    34.644683 
  992500    33.308561  -0.39594677            0  -0.34428114   -204.73236 
  992550    40.836653  -0.40771325            0  -0.34437063   -30.033733 
  992600    36.240521  -0.40054116            0   -0.3443277   -63.716424 
  992650    28.405819  -0.38834416            0  -0.34428327   -278.58695 
  992700    32.608424  -0.39483767            0  -0.34425804    128.75465 
  992750    27.428562  -0.38687567            0  -0.34433063   -19.374243 
  992800    28.656922  -0.38871004            0  -0.34425966     56.74594 
  992850    37.350641  -0.40223994            0  -0.34430455   -43.033706 
  992900     33.59917  -0.39643357            0  -0.34431717   -41.775646 
  992950    38.936293  -0.40469277            0  -0.34429784    74.283388 
  993000    30.146293  -0.39103263            0  -0.34427206   -106.46751 
  993050    25.542805  -0.38390786            0  -0.34428786   -64.853862 
  993100    37.868855  -0.40306602            0  -0.34432681    80.202904 
  993150     26.19927  -0.38490235            0  -0.34426409    275.96793 
  993200    29.964724  -0.39076652            0  -0.34428759   -214.79824 
  993250    34.872948   -0.3983894            0  -0.34429722   -76.952451 
  993300    40.455818  -0.40707485            0  -0.34432295    20.474085 
  993350    29.788587  -0.39050142            0  -0.34429569   -195.74989 
  993400    34.384693  -0.39764076            0  -0.34430592   -43.222215 
  993450     38.69866  -0.40433372            0  -0.34430739   -162.13169 
  993500    27.663603  -0.38719289            0  -0.34428327    61.208914 
  993550    39.459978  -0.40551831            0  -0.34431108    123.32709 
  993600    30.928777  -0.39228093            0  -0.34430663    51.529601 
  993650     22.88075  -0.37975439            0  -0.34426356   -27.482654 
  993700    35.917871  -0.40007003            0  -0.34435704    316.34317 
  993750    44.545734  -0.41340653            0  -0.34431068    184.97458 
  993800    15.616744  -0.36847702            0  -0.34425355   -335.95755 
  993850    43.774645  -0.41222618            0  -0.34432637   -39.781542 
  993900    28.470613   -0.3884885            0  -0.34432711    286.42126 
  993950    37.218488  -0.40203963            0  -0.34430922    115.49073 
  994000    30.996613  -0.39236668            0  -0.34428716    104.74662 
  994050    28.340058   -0.3882463            0  -0.34428742    -103.4268 
  994100    30.158784  -0.39110392            0  -0.34432397   -24.227465 
  994150    38.296219  -0.40377968            0  -0.34437758   -62.305829 
  994200     35.75323  -0.39971287            0  -0.34425526    81.720414 
  994250    40.093425  -0.40656936            0  -0.34437958   -3.2770227 
  994300    22.944771  -0.37984351            0  -0.34425337   -205.49906 
  994350    38.665344  -0.40428441            0  -0.34430976    3.0876997 
  994400    38.601558   -0.4041908            0  -0.34431509   -47.015461 
  994450    26.232473  -0.38496475            0    -0.344275   -33.209905 
  994500    25.702047  -0.38412564            0  -0.34425864   -122.32242 
  994550    45.255519  -0.41451125            0  -0.34431443   -279.80448 
  994600      37.5227  -0.40250325            0  -0.34430098   -121.78911 
  994650    34.059084  -0.39712909            0  -0.34429931   -130.63651 
  994700    34.488051  -0.39779867            0   -0.3443035    173.23571 
  994750    26.469515  -0.38533058            0  -0.34427314    76.071525 
  994800     23.95455  -0.38140933            0  -0.34425291   -36.949024 
  994850    40.551232  -0.40719342            0  -0.34429352   -57.878341 
  994900    31.286792    -0.392798            0  -0.34426837   -113.99196 
  994950    32.199114  -0.39421905            0  -0.34427431    -130.9955 
  995000     30.54259  -0.39167176            0  -0.34429649    39.089365 
  995050    22.070238  -0.37850575            0  -0.34427213   -73.988737 
  995100    31.476046  -0.39310715            0  -0.34428397    70.440865 
  995150    29.438746  -0.38998913            0  -0.34432605    332.38915 
  995200    43.831862  -0.41230105            0   -0.3443125   -83.624335 
  995250    26.024156  -0.38465583            0  -0.34428919     -270.768 
  995300    22.386802  -0.37898473            0  -0.34426008    48.325298 
  995350    50.175075  -0.42215478            0  -0.34432713    63.342802 
  995400    22.846494   -0.3797297            0    -0.344292    -270.6645 
  995450    32.939521  -0.39544259            0  -0.34434938     10.15954 
  995500    37.174617  -0.40194205            0   -0.3442797    33.472539 
  995550     33.52894  -0.39632035            0  -0.34431288   -60.414132 
  995600    35.277544  -0.39904082            0  -0.34432105   -95.698372 
  995650     40.07634  -0.40648669            0  -0.34432341   -74.714021 
  995700    26.753574  -0.38577213            0  -0.34427408    124.07276 
  995750    28.699683  -0.38877837            0  -0.34426166    245.86567 
  995800    38.815763  -0.40454706            0  -0.34433909   -3.9318829 
  995850    24.107139  -0.38164792            0  -0.34425481    100.47443 
  995900    25.432077  -0.38374184            0  -0.34429359    121.63475 
  995950    35.847993  -0.39988878            0  -0.34428418    177.35355 
  996000    36.066357  -0.40024927            0  -0.34430596   -213.61432 
  996050    30.924452  -0.39225819            0   -0.3442906    248.90733 
  996100    27.345262  -0.38668721            0  -0.34427138     316.4395 
  996150    37.783884   -0.4029303            0  -0.34432289   -145.99461 
  996200    29.714828  -0.39037225            0  -0.34428094    107.50167 
  996250     34.36295  -0.39760143            0  -0.34430032     54.57825 
  996300    32.218372  -0.39430238            0  -0.34432776   -118.89182 
  996350    42.569495  -0.41036622            0  -0.34433575   -169.68032 
  996400    27.630731  -0.38715392            0  -0.34429529   -221.91898 
  996450    42.304596   -0.4099217            0  -0.34430213   -114.57326 
  996500    34.518206  -0.39782326            0  -0.34428132   -108.27093 
  996550    27.794071  -0.38738247            0  -0.34427048    52.186223 
  996600    48.509384  -0.41957471            0  -0.34433075   -81.266725 
  996650    21.197952  -0.37713742            0  -0.34425681   -101.39509 
  996700    33.008624  -0.39546284            0  -0.34426245    48.927763 
  996750    40.556145  -0.40726031            0  -0.34435279    173.98965 
  996800    23.323794  -0.38046494            0  -0.34428689   -257.40244 
  996850    37.868482  -0.40305744            0  -0.34431881   -29.059649 
  996900     33.56869  -0.39636636            0  -0.34429724   -23.554486 
  996950    27.255966  -0.38655264            0  -0.34427532   -163.33649 
  997000     39.89749  -0.40618485            0  -0.34429898   -11.317585 
  997050     21.96784  -0.37833936            0  -0.34426457   -189.13356 
  997100    32.744169   -0.3950488            0  -0.34425861    141.09604 
  997150    42.232886  -0.40981511            0  -0.34430677    98.266365 
  997200    23.348495   -0.3804924            0  -0.34427604     41.20792 
  997250    35.894148  -0.39998054            0  -0.34430434   -90.254957 
  997300    34.128282  -0.39723159            0  -0.34429447   -199.20189 
  997350    36.066171  -0.40025441            0  -0.34431139   -30.315013 
  997400    25.321344  -0.38353325            0  -0.34425676   -13.852943 
  997450    28.541017  -0.38851604            0  -0.34424545   -27.340145 
  997500    43.482475  -0.41180527            0  -0.34435865    23.243088 
  997550    28.731425  -0.38885471            0  -0.34428877    42.930633 
  997600    29.492261  -0.39003536            0  -0.34428927    11.390559 
  997650    31.464588   -0.3930856            0  -0.34428019   -76.138098 
  997700    37.761146  -0.40286111            0  -0.34428897   -62.225729 
  997750    27.026394  -0.38619896            0  -0.34427773   -76.237566 
  997800    35.901141  -0.40004731            0  -0.34436027    118.42302 
  997850    29.777022  -0.39044136            0  -0.34425357     424.8635 
  997900    31.046927  -0.39245567            0  -0.34429811    54.025211 
  997950    22.108581  -0.37854694            0  -0.34425384    44.638912 
  998000    37.927156  -0.40314555            0  -0.34431591    63.365838 
  998050    30.618689  -0.39177612            0   -0.3442828   -106.01367 
  998100    31.022086  -0.39243586            0  -0.34431683    -24.93122 
  998150    27.000687  -0.38610647            0  -0.34422512   -26.229924 
  998200    40.159229  -0.40661762            0  -0.34432577   -103.96356 
  998250    22.458711  -0.37912556            0  -0.34428936   -106.64891 
  998300    33.576405   -0.3963862            0  -0.34430511    34.768164 
  998350    25.357798  -0.38359635            0  -0.34426332   -36.490155 
  998400    29.632121  -0.39029097            0  -0.34432794    75.277991 
  998450    30.588383  -0.39166026            0  -0.34421395    429.95059 
  998500    24.173005   -0.3817661            0  -0.34427083   -56.804201 
  998550    29.209309   -0.3895794            0  -0.34427221    260.10729 
  998600    31.960886  -0.39389918            0  -0.34432395    347.38036 
  998650    29.123398  -0.38948589            0  -0.34431195   0.50888995 
  998700    30.044511  -0.39088528            0  -0.34428258   -68.711788 
  998750    38.778763  -0.40443808            0   -0.3442875    -94.53605 
  998800    28.183489   -0.3879947            0  -0.34427867   -106.54904 
  998850    34.392865  -0.39764559            0  -0.34429807    100.18826 
  998900    39.393744  -0.40542166            0  -0.34431716    16.788088 
  998950    40.254749  -0.40675783            0  -0.34431781   -41.686694 
  999000    19.492406   -0.3745518            0   -0.3443167    137.40009 
  999050    39.066155  -0.40489746            0   -0.3443011     103.9151 
  999100    37.758654  -0.40286572            0  -0.34429745   -74.154186 
  999150    28.621495  -0.38866861            0  -0.34427319    -107.5744 
  999200    20.687389  -0.37637015            0  -0.34428149   -263.58997 
  999250    38.423553   -0.4038907            0  -0.34429109    112.10042 
  999300    34.920453  -0.39851283            0  -0.34434695    104.35914 
  999350    21.442156  -0.37752134            0  -0.34426195    88.689845 
  999400     31.49966  -0.39310799            0  -0.34424818    366.68649 
  999450    27.644047  -0.38719431            0  -0.34431503   -81.311561 
  999500    41.023063  -0.40793706            0   -0.3443053    7.0307374 
  999550    25.295836  -0.38348457            0  -0.34424765    71.840652 
  999600     34.39669  -0.39763775            0   -0.3442843   -85.556973 
  999650     34.20346  -0.39735564            0  -0.34430191   -22.649108 
  999700    31.481344  -0.39310256            0  -0.34427116    170.35705 
  999750    36.585311  -0.40107057            0   -0.3443223   -42.312015 
  999800    34.343209  -0.39755072            0  -0.34428023   -110.05987 
  999850    32.885275  -0.39527464            0  -0.34426557    40.421585 
  999900    29.384554  -0.38989744            0  -0.34431842    3.8364905 
  999950    40.398711  -0.40698547            0  -0.34432215    4.6980055 
 1000000    25.559383  -0.38389374            0  -0.34424803   -140.86657 
Loop time of 45.8848 on 1 procs for 1000000 steps with 13 atoms

Performance: 9414.873 ns/day, 0.003 hours/ns, 21793.688 timesteps/s
98.8% CPU use with 1 MPI tasks x no OpenMP threads

MPI task timing breakdown:
Section |  min time  |  avg time  |  max time  |%varavg| %total
---------------------------------------------------------------
Pair    | 43.944     | 43.944     | 43.944     |   0.0 | 95.77
Neigh   | 0.0011368  | 0.0011368  | 0.0011368  |   0.0 |  0.00
Comm    | 0.09072    | 0.09072    | 0.09072    |   0.0 |  0.20
Output  | 0.79264    | 0.79264    | 0.79264    |   0.0 |  1.73
Modify  | 0.91331    | 0.91331    | 0.91331    |   0.0 |  1.99
Other   |            | 0.143      |            |       |  0.31

Nlocal:        13.0000 ave          13 max          13 min
Histogram: 1 0 0 0 0 0 0 0 0 0
Nghost:         0.00000 ave           0 max           0 min
Histogram: 1 0 0 0 0 0 0 0 0 0
Neighs:        78.0000 ave          78 max          78 min
Histogram: 1 0 0 0 0 0 0 0 0 0
FullNghs:      156.000 ave         156 max         156 min
Histogram: 1 0 0 0 0 0 0 0 0 0

Total # of neighbors = 156
Ave neighs/atom = 12.000000
Neighbor list builds = 327
Dangerous builds = 0
unfix l0
unfix frdf
unfix fpe
unfix fmsd
undump 1
undump 2
clear
Total wall time: 0:00:50
