13
Atoms. Timestep: 0
1 1.01322 0.332996 0.181287
1 0.725599 -0.766045 0.238863
1 0.729336 -0.230944 -0.764924
1 0.351362 0.829117 -0.59957
1 0.345315 -0.0366958 1.02459
1 0.114024 0.949169 0.50641
1 -1.01322 -0.332996 -0.181287
1 -0.114023 -0.949169 -0.50641
1 -0.351362 -0.829117 0.59957
1 -0.345315 0.0366957 -1.02459
1 -0.725598 0.766046 -0.238862
1 -0.729336 0.230944 0.764924
1 8.339e-07 2.733e-07 1.488e-07
13
Atoms. Timestep: 1
1 1.0125 0.340715 0.170709
1 0.727716 -0.769039 0.238378
1 0.733818 -0.234659 -0.760953
1 0.335407 0.824658 -0.604717
1 0.341611 -0.0407399 1.03808
1 0.109743 0.950973 0.507028
1 -1.01152 -0.328015 -0.178386
1 -0.118228 -0.941362 -0.509707
1 -0.349304 -0.830202 0.594916
1 -0.335379 0.0412613 -1.01898
1 -0.717321 0.768112 -0.243515
1 -0.726725 0.234478 0.767413
1 -0.00232378 -0.0161789 -0.000264285
13
Atoms. Timestep: 2
1 1.0117 0.348395 0.160182
1 0.72986 -0.772033 0.237922
1 0.738311 -0.238365 -0.757014
1 0.319566 0.820218 -0.609817
1 0.337916 -0.04476 1.05142
1 0.105488 0.952672 0.507602
1 -1.0099 -0.323047 -0.175507
1 -0.12243 -0.933735 -0.513077
1 -0.347294 -0.831372 0.590354
1 -0.325527 0.0457808 -1.01349
1 -0.709103 0.770148 -0.248113
1 -0.72411 0.237997 0.769875
1 -0.00447212 -0.031899 -0.000334312
13
Atoms. Timestep: 3
1 1.01074 0.356008 0.149741
1 0.732061 -0.775036 0.237522
1 0.742818 -0.242053 -0.75314
1 0.30402 0.815858 -0.614825
1 0.334231 -0.0487421 1.06451
1 0.101288 0.954192 0.508105
1 -1.00848 -0.318102 -0.172674
1 -0.12663 -0.926512 -0.516622
1 -0.345387 -0.832737 0.585996
1 -0.315873 0.0501741 -1.00828
1 -0.701044 0.77213 -0.252591
1 -0.721488 0.241483 0.772288
1 -0.00625594 -0.0466639 -3.11561e-05
13
Atoms. Timestep: 4
1 1.00958 0.363539 0.139419
1 0.734348 -0.778063 0.237203
1 0.747345 -0.245718 -0.749363
1 0.289044 0.811701 -0.619689
1 0.330551 -0.0526797 1.07726
1 0.0971759 0.955484 0.508517
1 -1.00735 -0.31319 -0.16991
1 -0.130842 -0.91996 -0.520471
1 -0.343649 -0.834429 0.58197
1 -0.306565 0.0543114 -1.00351
1 -0.693303 0.774035 -0.256866
1 -0.718858 0.244918 0.774628
1 -0.00747936 -0.0599491 0.000806907
13
Atoms. Timestep: 5
1 1.00819 0.37098 0.129242
1 0.736751 -0.781134 0.236989
1 0.751889 -0.249358 -0.745717
1 0.275024 0.807946 -0.624356
1 0.326871 -0.0565717 1.08962
1 0.0931868 0.956519 0.508825
1 -1.0066 -0.308319 -0.167235
1 -0.135082 -0.914359 -0.524768
1 -0.342152 -0.836597 0.578413
1 -0.297792 0.0579953 -0.999382
1 -0.686102 0.775846 -0.26083
1 -0.716224 0.248281 0.776878
1 -0.00794975 -0.07123 0.00231755
13
Atoms. Timestep: 6
1 1.00654 0.378333 0.119234
1 0.739293 -0.784269 0.236898
1 0.756441 -0.252974 -0.74223
1 0.262461 0.804877 -0.628768
1 0.323185 -0.0604201 1.10155
1 0.089358 0.957286 0.509026
1 -1.00632 -0.30349 -0.164667
1 -0.139371 -0.909969 -0.529651
1 -0.340969 -0.839389 0.575458
1 -0.289788 0.0609498 -0.996122
1 -0.679734 0.777552 -0.264354
1 -0.713594 0.251547 0.779023
1 -0.00749643 -0.0800341 0.00460055
13
Atoms. Timestep: 7
1 1.00463 0.385605 0.10942
1 0.741991 -0.787487 0.236946
1 0.760987 -0.256571 -0.738931
1 0.251952 0.80285 -0.632868
1 0.319488 -0.0642294 1.11302
1 0.0857281 0.957788 0.509116
1 -1.00655 -0.298704 -0.162216
1 -0.143727 -0.906976 -0.535213
1 -0.340161 -0.842932 0.573212
1 -0.282815 0.0628309 -0.993955
1 -0.674548 0.779141 -0.267288
1 -0.710981 0.254695 0.781056
1 -0.00599492 -0.0860093 0.00770028
13
Atoms. Timestep: 8
1 1.00246 0.39281 0.0998261
1 0.744848 -0.7908 0.237146
1 0.765506 -0.260158 -0.735848
1 0.244109 0.802245 -0.636608
1 0.315772 -0.0680052 1.12401
1 0.0823363 0.958034 0.509096
1 -1.00728 -0.29396 -0.159889
1 -0.148155 -0.90545 -0.541477
1 -0.33977 -0.847307 0.571737
1 -0.277131 0.0632744 -0.993079
1 -0.670909 0.780604 -0.269477
1 -0.708404 0.257697 0.782973
1 -0.0033901 -0.0889866 0.0115932
13
Atoms. Timestep: 9
1 1.00006 0.399967 0.0904774
1 0.747855 -0.794213 0.237504
1 0.76997 -0.263744 -0.733005
1 0.239433 0.803376 -0.63997
1 0.312034 -0.0717539 1.13451
1 0.0792215 0.958047 0.508968
1 -1.00847 -0.289256 -0.157683
1 -0.152645 -0.905336 -0.548374
1 -0.339807 -0.852527 0.571033
1 -0.272928 0.061988 -0.993625
1 -0.669128 0.78193 -0.270795
1 -0.705887 0.26053 0.784774
1 0.000290917 -0.089008 0.01619
13
Atoms. Timestep: 10
1 0.997443 0.407096 0.0814022
1 0.750991 -0.797726 0.238022
1 0.774348 -0.267342 -0.730422
1 0.238172 0.806393 -0.64297
1 0.30827 -0.0754817 1.14451
1 0.076421 0.957853 0.508733
1 -1.01005 -0.284593 -0.155591
1 -0.157172 -0.906479 -0.555759
1 -0.340249 -0.858536 0.57104
1 -0.270275 0.0588543 -0.995608
1 -0.669381 0.783101 -0.271177
1 -0.703459 0.263167 0.786469
1 0.00494221 -0.0863068 0.0213534
13
Atoms. Timestep: 11
1 0.994661 0.414221 0.0726302
1 0.754223 -0.801327 0.238701
1 0.778602 -0.270965 -0.728119
1 0.240234 0.811225 -0.645661
1 0.304475 -0.0791952 1.15401
1 0.0739698 0.957486 0.50839
1 -1.01192 -0.279975 -0.1536
1 -0.161697 -0.908671 -0.563441
1 -0.341048 -0.865216 0.571647
1 -0.269089 0.0539877 -0.998909
1 -0.671651 0.784095 -0.270642
1 -0.701153 0.265584 0.788067
1 0.0103976 -0.0812507 0.0269253
13
Atoms. Timestep: 12
1 0.991774 0.421365 0.0641937
1 0.75751 -0.805 0.239536
1 0.782697 -0.274624 -0.726107
1 0.245222 0.817614 -0.648115
1 0.300648 -0.0829003 1.16302
1 0.0718992 0.956989 0.507938
1 -1.01398 -0.275412 -0.151698
1 -0.166179 -0.911702 -0.571214
1 -0.342134 -0.872408 0.572718
1 -0.269167 0.0477039 -1.00331
1 -0.675737 0.784892 -0.269293
1 -0.699005 0.267757 0.789584
1 0.0164562 -0.0742741 0.0327493
13
Atoms. Timestep: 13
1 0.98886 0.42855 0.056127
1 0.760806 -0.808722 0.240519
1 0.786594 -0.278329 -0.724394
1 0.252551 0.8252 -0.650406
1 0.296788 -0.0866025 1.17153
1 0.0702356 0.956409 0.507379
1 -1.01613 -0.270917 -0.149869
1 -0.170578 -0.915394 -0.578889
1 -0.343429 -0.879938 0.574107
1 -0.270246 0.0404272 -1.00855
1 -0.68131 0.785475 -0.267283
1 -0.697053 0.269663 0.791039
1 0.0229071 -0.0658225 0.0386841
13
Atoms. Timestep: 14
1 0.986018 0.435796 0.0484677
1 0.764063 -0.812465 0.241644
1 0.790259 -0.282085 -0.722981
1 0.261585 0.83362 -0.652595
1 0.292893 -0.0903068 1.17956
1 0.0689999 0.955802 0.506711
1 -1.01825 -0.266511 -0.148099
1 -0.17486 -0.91961 -0.586303
1 -0.344858 -0.887638 0.57568
1 -0.272064 0.0325923 -1.01436
1 -0.688 0.785838 -0.264781
1 -0.695333 0.271285 0.792451
1 0.029546 -0.0563189 0.0446077
13
Atoms. Timestep: 15
1 0.983369 0.443116 0.0412561
1 0.767232 -0.816198 0.242901
1 0.79366 -0.285896 -0.721862
1 0.271735 0.842567 -0.654739
1 0.288965 -0.0940179 1.1871
1 0.0682062 0.955232 0.505939
1 -1.02028 -0.262216 -0.146376
1 -0.178995 -0.924258 -0.593327
1 -0.346353 -0.895356 0.577323
1 -0.274395 0.0245815 -1.02053
1 -0.695451 0.785988 -0.261942
1 -0.693881 0.272607 0.793841
1 0.0361848 -0.0461491 0.0504156
13
Atoms. Timestep: 16
1 0.981051 0.450518 0.0345358
1 0.770267 -0.819892 0.24428
1 0.796771 -0.289759 -0.721023
1 0.282501 0.85181 -0.656889
1 0.285002 -0.0977396 1.19416
1 0.067861 0.95477 0.505074
1 -1.02214 -0.258063 -0.14469
1 -0.182963 -0.929281 -0.59986
1 -0.347855 -0.902964 0.578941
1 -0.277062 0.0166997 -1.02688
1 -0.703361 0.785943 -0.258894
1 -0.692727 0.273618 0.795229
1 0.0426543 -0.0356603 0.0560171
13
Atoms. Timestep: 17
1 0.979222 0.458002 0.0283527
1 0.773129 -0.823517 0.245772
1 0.799565 -0.293668 -0.720442
1 0.29348 0.861197 -0.659106
1 0.281007 -0.101476 1.20075
1 0.0679622 0.954502 0.504131
1 -1.02378 -0.254086 -0.143034
1 -0.186749 -0.934644 -0.605831
1 -0.349317 -0.910361 0.580464
1 -0.279935 0.00917374 -1.0333
1 -0.71149 0.785731 -0.25573
1 -0.691897 0.274312 0.796633
1 0.0488048 -0.0251661 0.0613315
13
Atoms. Timestep: 18
1 0.978047 0.465556 0.0227545
1 0.77578 -0.827043 0.247367
1 0.802024 -0.29761 -0.720093
1 0.304358 0.870635 -0.661451
1 0.276981 -0.105229 1.20688
1 0.0684989 0.954516 0.503136
1 -1.02517 -0.250323 -0.141402
1 -0.190343 -0.940323 -0.611191
1 -0.350704 -0.917468 0.58184
1 -0.282919 0.00216229 -1.03967
1 -0.719653 0.785387 -0.252519
1 -0.691407 0.274692 0.798068
1 0.054506 -0.0149522 0.0662853
13
Atoms. Timestep: 19
1 0.977692 0.473161 0.0177877
1 0.77819 -0.830447 0.249055
1 0.804132 -0.301569 -0.719944
1 0.314887 0.880082 -0.663997
1 0.272926 -0.109003 1.21255
1 0.069451 0.954914 0.502122
1 -1.02628 -0.246816 -0.13979
1 -0.19374 -0.946301 -0.615911
1 -0.351987 -0.924226 0.583029
1 -0.285947 -0.00423234 -1.04595
1 -0.72771 0.784954 -0.249304
1 -0.691266 0.274762 0.799547
1 0.0596486 -0.00527926 0.0708099
13
Atoms. Timestep: 20
1 0.978304 0.480783 0.0134949
1 0.780332 -0.833704 0.25083
1 0.805876 -0.305523 -0.719959
1 0.324876 0.889524 -0.666811
1 0.268843 -0.112799 1.21776
1 0.0707903 0.955796 0.501129
1 -1.02708 -0.243614 -0.138196
1 -0.196939 -0.952553 -0.619976
1 -0.353147 -0.930591 0.584005
1 -0.288974 -0.00995296 -1.05208
1 -0.735557 0.784477 -0.246114
1 -0.691473 0.274538 0.801077
1 0.0641479 0.00361751 0.0748408
13
Atoms. Timestep: 21
1 0.980003 0.488385 0.00990904
1 0.782187 -0.836796 0.25268
1 0.807247 -0.309451 -0.720101
1 0.334183 0.898966 -0.669959
1 0.264735 -0.116621 1.22252
1 0.0724813 0.957262 0.500201
1 -1.02758 -0.240763 -0.136618
1 -0.19994 -0.95905 -0.623387
1 -0.354167 -0.936532 0.584751
1 -0.291965 -0.0149782 -1.05801
1 -0.743116 0.784005 -0.242966
1 -0.692017 0.274039 0.802661
1 0.0679474 0.0115334 0.078319
13
Atoms. Timestep: 22
1 0.982861 0.495919 0.00704923
1 0.783737 -0.839707 0.254601
1 0.808239 -0.313328 -0.720332
1 0.342707 0.908417 -0.673487
1 0.260604 -0.120471 1.22684
1 0.0744833 0.959399 0.499381
1 -1.02776 -0.238314 -0.135058
1 -0.202748 -0.965756 -0.626153
1 -0.355039 -0.942027 0.585254
1 -0.294897 -0.0193143 -1.06372
1 -0.750326 0.783589 -0.239867
1 -0.692881 0.273288 0.804299
1 0.0710229 0.0183027 0.0811925
13
Atoms. Timestep: 23
1 0.986894 0.503339 0.00491566
1 0.784969 -0.842424 0.256583
1 0.808848 -0.317129 -0.720617
1 0.35039 0.917881 -0.677421
1 0.256453 -0.12435 1.23072
1 0.0767528 0.96227 0.498705
1 -1.02764 -0.236318 -0.133516
1 -0.205367 -0.972623 -0.628292
1 -0.355753 -0.947061 0.585507
1 -0.297752 -0.0229884 -1.06916
1 -0.757142 0.78328 -0.236821
1 -0.694037 0.272316 0.805983
1 0.0733832 0.0238074 0.0834201
13
Atoms. Timestep: 24
1 0.99206 0.510598 0.00348726
1 0.785875 -0.844937 0.25862
1 0.809072 -0.320832 -0.720921
1 0.35721 0.927354 -0.68176
1 0.252284 -0.128262 1.23416
1 0.0792458 0.965908 0.498197
1 -1.02721 -0.234821 -0.131995
1 -0.207804 -0.979602 -0.629827
1 -0.356307 -0.951623 0.585506
1 -0.300517 -0.026042 -1.07432
1 -0.763527 0.783122 -0.233825
1 -0.695454 0.271151 0.807705
1 0.0750668 0.0279853 0.0849747
13
Atoms. Timestep: 25
1 0.998266 0.517657 0.00272194
1 0.786447 -0.84724 0.260707
1 0.808912 -0.324415 -0.721213
1 0.36318 0.936819 -0.686477
1 0.248101 -0.132208 1.23716
1 0.0819198 0.970306 0.497866
1 -1.02647 -0.233866 -0.130498
1 -0.210064 -0.986637 -0.630784
1 -0.356696 -0.955709 0.585248
1 -0.30318 -0.0285259 -1.07916
1 -0.769455 0.78316 -0.230876
1 -0.697094 0.269828 0.809452
1 0.0761362 0.0308323 0.0858471
13
Atoms. Timestep: 26
1 1.00538 0.524488 0.00255972
1 0.786681 -0.849327 0.262837
1 0.80837 -0.32786 -0.721467
1 0.368339 0.946244 -0.691521
1 0.243907 -0.136192 1.23974
1 0.0847353 0.975417 0.497702
1 -1.02545 -0.233489 -0.12903
1 -0.212154 -0.993672 -0.631193
1 -0.356921 -0.959314 0.584733
1 -0.305733 -0.0304959 -1.08365
1 -0.774904 0.783427 -0.227968
1 -0.698918 0.268376 0.811209
1 0.0766685 0.0323987 0.0860471
13
Atoms. Timestep: 27
1 1.01323 0.531067 0.00292799
1 0.786573 -0.851195 0.265006
1 0.807449 -0.331151 -0.72166
1 0.372746 0.955594 -0.696824
1 0.239706 -0.140217 1.24188
1 0.0876568 0.981159 0.497681
1 -1.02413 -0.233718 -0.127596
1 -0.214081 -1.00065 -0.63108
1 -0.356979 -0.962437 0.58396
1 -0.30817 -0.032009 -1.08776
1 -0.779861 0.783948 -0.225096
1 -0.700886 0.266828 0.812958
1 0.0767476 0.0327809 0.0856025
13
Atoms. Timestep: 28
1 1.02165 0.537385 0.00374761
1 0.786124 -0.852843 0.267208
1 0.806156 -0.334278 -0.721772
1 0.376471 0.964825 -0.702308
1 0.235502 -0.144284 1.2436
1 0.090653 0.987425 0.497766
1 -1.02253 -0.234568 -0.126202
1 -0.215851 -1.00752 -0.630474
1 -0.356873 -0.965078 0.582931
1 -0.310485 -0.0331209 -1.09148
1 -0.784316 0.784738 -0.222251
1 -0.70296 0.26521 0.81468
1 0.0764554 0.032107 0.0845561
13
Atoms. Timestep: 29
1 1.03049 0.543436 0.0049386
1 0.785333 -0.854271 0.269439
1 0.804494 -0.337231 -0.721789
1 0.379587 0.973895 -0.707896
1 0.2313 -0.148399 1.2449
1 0.0936968 0.994091 0.497912
1 -1.02065 -0.236043 -0.124856
1 -0.217469 -1.01423 -0.629401
1 -0.356603 -0.967238 0.581647
1 -0.312672 -0.0338846 -1.09479
1 -0.788266 0.7858 -0.219425
1 -0.705103 0.263549 0.816356
1 0.0758675 0.0305233 0.0829616
13
Atoms. Timestep: 30
1 1.03957 0.549221 0.00642468
1 0.784202 -0.85548 0.271695
1 0.802472 -0.340004 -0.721699
1 0.382167 0.982763 -0.713512
1 0.227105 -0.152563 1.24578
1 0.096765 1.00103 0.498073
1 -1.01849 -0.238138 -0.123566
1 -0.218939 -1.02073 -0.627883
1 -0.356172 -0.968921 0.58011
1 -0.314728 -0.0343487 -1.09765
1 -0.79171 0.787124 -0.21661
1 -0.707282 0.261865 0.817965
1 0.075049 0.0281812 0.0808789
13
Atoms. Timestep: 31
1 1.04876 0.554745 0.00813625
1 0.782732 -0.856471 0.273972
1 0.800097 -0.342595 -0.721496
1 0.384277 0.991394 -0.719086
1 0.222924 -0.156782 1.24624
1 0.0998382 1.00812 0.498201
1 -1.01606 -0.240834 -0.12234
1 -0.220266 -1.02699 -0.625943
1 -0.355584 -0.970128 0.578323
1 -0.316651 -0.0345574 -1.10007
1 -0.794654 0.788689 -0.213797
1 -0.709465 0.260178 0.819489
1 0.0740542 0.0252272 0.0783702
13
Atoms. Timestep: 32
1 1.05794 0.560016 0.010012
1 0.780929 -0.857249 0.276267
1 0.797379 -0.345003 -0.721175
1 0.385979 0.999757 -0.724559
1 0.218762 -0.161057 1.24629
1 0.1029 1.01525 0.498254
1 -1.01336 -0.244102 -0.121187
1 -0.221453 -1.03297 -0.6236
1 -0.354841 -0.970866 0.57629
1 -0.318436 -0.03455 -1.10202
1 -0.797103 0.790466 -0.210978
1 -0.711627 0.258503 0.820908
1 0.0729262 0.0217967 0.0754968
13
Atoms. Timestep: 33
1 1.06702 0.565041 0.0119993
1 0.778797 -0.857816 0.278578
1 0.794327 -0.34723 -0.720735
1 0.387324 1.00783 -0.72988
1 0.214628 -0.165394 1.24593
1 0.105937 1.02233 0.498195
1 -1.01039 -0.247907 -0.120118
1 -0.222502 -1.03863 -0.620872
1 -0.35395 -0.97114 0.574014
1 -0.320082 -0.034361 -1.10349
1 -0.799067 0.792417 -0.208143
1 -0.713745 0.256853 0.822203
1 0.0716981 0.018011 0.0723175
13
Atoms. Timestep: 34
1 1.07592 0.569831 0.0140539
1 0.776343 -0.858178 0.2809
1 0.790952 -0.34928 -0.720179
1 0.388356 1.01559 -0.735007
1 0.210528 -0.169796 1.24516
1 0.108938 1.02926 0.49799
1 -1.00715 -0.252208 -0.119141
1 -0.223416 -1.04395 -0.617774
1 -0.352917 -0.970959 0.571502
1 -0.321587 -0.0340207 -1.10446
1 -0.800556 0.794498 -0.205286
1 -0.715803 0.255238 0.823356
1 0.0703945 0.0139766 0.0688876
13
Atoms. Timestep: 35
1 1.08456 0.574393 0.0161395
1 0.773574 -0.858339 0.283233
1 0.787268 -0.351157 -0.719511
1 0.389114 1.02302 -0.739905
1 0.206473 -0.174265 1.24399
1 0.111894 1.03598 0.497613
1 -1.00366 -0.256959 -0.118266
1 -0.224194 -1.0489 -0.614321
1 -0.351749 -0.970331 0.568761
1 -0.32295 -0.0335553 -1.10495
1 -0.801581 0.796664 -0.202399
1 -0.717784 0.253666 0.82435
1 0.0690334 0.00978665 0.0652589
13
Atoms. Timestep: 36
1 1.0929 0.578737 0.0182263
1 0.7705 -0.858306 0.285573
1 0.783289 -0.352871 -0.71874
1 0.389627 1.03011 -0.744549
1 0.202472 -0.178806 1.24243
1 0.1148 1.04245 0.497043
1 -0.999919 -0.262112 -0.117503
1 -0.224838 -1.05347 -0.610528
1 -0.350454 -0.969268 0.5658
1 -0.324169 -0.0329872 -1.10492
1 -0.802154 0.798866 -0.199478
1 -0.719678 0.252144 0.825168
1 0.0676269 0.00552221 0.0614795
13
Atoms. Timestep: 37
1 1.10089 0.582871 0.0202903
1 0.767133 -0.858085 0.287919
1 0.779032 -0.354429 -0.717878
1 0.389922 1.03685 -0.748916
1 0.198535 -0.183419 1.24048
1 0.117648 1.0486 0.496263
1 -0.995948 -0.267621 -0.116861
1 -0.225347 -1.05764 -0.606407
1 -0.349044 -0.967785 0.56263
1 -0.325245 -0.0323357 -1.10439
1 -0.802284 0.801058 -0.196517
1 -0.721477 0.250675 0.825795
1 0.0661835 0.00125524 0.0575948
13
Atoms. Timestep: 38
1 1.10851 0.586802 0.0223125
1 0.763488 -0.857684 0.290268
1 0.774514 -0.355841 -0.716938
1 0.390018 1.04325 -0.75299
1 0.194674 -0.188108 1.23814
1 0.120437 1.05442 0.495259
1 -0.991767 -0.273439 -0.116351
1 -0.225719 -1.06139 -0.601974
1 -0.34753 -0.9659 0.559266
1 -0.326176 -0.031617 -1.10334
1 -0.801984 0.803196 -0.193514
1 -0.723176 0.249264 0.826217
1 0.0647087 -0.00294922 0.0536481
13
Atoms. Timestep: 39
1 1.11573 0.590539 0.0242776
1 0.75958 -0.857109 0.292619
1 0.769759 -0.35712 -0.715939
1 0.389933 1.04929 -0.756759
1 0.190902 -0.192873 1.23542
1 0.123163 1.05987 0.49402
1 -0.9874 -0.27952 -0.115982
1 -0.225952 -1.06472 -0.597243
1 -0.345927 -0.963634 0.555725
1 -0.326962 -0.030845 -1.10178
1 -0.801262 0.805238 -0.190466
1 -0.724771 0.247912 0.82642
1 0.063206 -0.00703067 0.0496812
13
Atoms. Timestep: 40
1 1.12254 0.594089 0.0261736
1 0.755431 -0.85637 0.29497
1 0.76479 -0.358279 -0.714901
1 0.389679 1.05497 -0.760212
1 0.187231 -0.197714 1.23234
1 0.125824 1.06494 0.49254
1 -0.98288 -0.285821 -0.115765
1 -0.226043 -1.06761 -0.592232
1 -0.344253 -0.961013 0.55203
1 -0.327605 -0.0300312 -1.0997
1 -0.800128 0.807145 -0.187373
1 -0.726261 0.246622 0.826394
1 0.0616779 -0.0109311 0.0457351
13
Atoms. Timestep: 41
1 1.12891 0.597456 0.0279914
1 0.751064 -0.855476 0.297318
1 0.759634 -0.359333 -0.713849
1 0.389269 1.0603 -0.763343
1 0.183678 -0.202627 1.2289
1 0.128421 1.0696 0.490811
1 -0.978247 -0.292299 -0.115712
1 -0.225987 -1.07006 -0.58696
1 -0.342528 -0.958067 0.548208
1 -0.328106 -0.0291851 -1.0971
1 -0.79859 0.808885 -0.184237
1 -0.727647 0.245393 0.826126
1 0.0601265 -0.0145932 0.0418509
13
Atoms. Timestep: 42
1 1.13485 0.600648 0.0297237
1 0.746508 -0.854435 0.299659
1 0.754324 -0.360299 -0.71281
1 0.388709 1.06526 -0.766144
1 0.180256 -0.20761 1.22511
1 0.130952 1.07386 0.488831
1 -0.973549 -0.298915 -0.115836
1 -0.225777 -1.07206 -0.58145
1 -0.340775 -0.954835 0.544293
1 -0.328465 -0.0283142 -1.09399
1 -0.796657 0.810426 -0.181061
1 -0.728931 0.244226 0.825607
1 0.058554 -0.017959 0.0380701
13
Atoms. Timestep: 43
1 1.14034 0.60367 0.0313649
1 0.741796 -0.853256 0.301991
1 0.748892 -0.361194 -0.711816
1 0.388007 1.06987 -0.768612
1 0.176984 -0.212655 1.22099
1 0.13342 1.07771 0.486597
1 -0.96884 -0.305626 -0.116153
1 -0.225406 -1.07363 -0.57573
1 -0.339021 -0.951359 0.540326
1 -0.328686 -0.0274243 -1.09037
1 -0.794336 0.811743 -0.177849
1 -0.730116 0.243119 0.82483
1 0.0569633 -0.0209687 0.0344348
13
Atoms. Timestep: 44
1 1.14539 0.606527 0.0329108
1 0.736965 -0.851951 0.30431
1 0.743379 -0.362039 -0.710898
1 0.387168 1.07412 -0.770743
1 0.173878 -0.217754 1.21655
1 0.135827 1.08114 0.484108
1 -0.964187 -0.312392 -0.116679
1 -0.224864 -1.07476 -0.569834
1 -0.337298 -0.947692 0.536355
1 -0.328772 -0.0265198 -1.08625
1 -0.791634 0.812814 -0.174607
1 -0.731205 0.242071 0.823787
1 0.0553583 -0.0235604 0.0309883
13
Atoms. Timestep: 45
1 1.14997 0.609223 0.0343583
1 0.73206 -0.850528 0.306609
1 0.737823 -0.362854 -0.710093
1 0.386195 1.07802 -0.772534
1 0.170959 -0.222893 1.21182
1 0.138173 1.08414 0.481364
1 -0.959662 -0.319169 -0.117432
1 -0.224138 -1.07547 -0.563799
1 -0.335641 -0.943891 0.532437
1 -0.328728 -0.0256031 -1.08163
1 -0.78856 0.81362 -0.171344
1 -0.732202 0.24108 0.822474
1 0.053744 -0.0256701 0.0277748
13
Atoms. Timestep: 46
1 1.15411 0.611763 0.035705
1 0.727129 -0.848997 0.308881
1 0.732269 -0.363661 -0.709437
1 0.385093 1.08155 -0.773982
1 0.168248 -0.228055 1.20681
1 0.140464 1.08672 0.478365
1 -0.955346 -0.325913 -0.118434
1 -0.223215 -1.07577 -0.557674
1 -0.33409 -0.940022 0.52864
1 -0.328558 -0.0246753 -1.07653
1 -0.785119 0.814147 -0.16807
1 -0.733111 0.240141 0.820888
1 0.0521271 -0.0272323 0.024839
13
Atoms. Timestep: 47
1 1.15779 0.61415 0.0369491
1 0.722227 -0.847366 0.311117
1 0.726762 -0.364481 -0.708964
1 0.383862 1.08473 -0.775085
1 0.165766 -0.233219 1.20156
1 0.142704 1.08889 0.475113
1 -0.951329 -0.332576 -0.119706
1 -0.222075 -1.07568 -0.551512
1 -0.332692 -0.93616 0.525037
1 -0.328271 -0.0237358 -1.07097
1 -0.781322 0.814383 -0.164799
1 -0.733937 0.239249 0.819029
1 0.0505157 -0.0281811 0.0222258
13
Atoms. Timestep: 48
1 1.16101 0.616388 0.0380894
1 0.717414 -0.845645 0.313308
1 0.721347 -0.365337 -0.70871
1 0.382504 1.08755 -0.77584
1 0.163536 -0.238358 1.19609
1 0.144898 1.09063 0.471613
1 -0.947702 -0.339104 -0.121273
1 -0.220698 -1.07522 -0.545378
1 -0.331496 -0.932385 0.521713
1 -0.327876 -0.022782 -1.06495
1 -0.777177 0.814318 -0.161544
1 -0.734683 0.2384 0.816898
1 0.0489195 -0.0284533 0.0199792
13
Atoms. Timestep: 49
1 1.16378 0.61848 0.039125
1 0.712753 -0.84384 0.31544
1 0.716066 -0.36625 -0.708703
1 0.38102 1.09002 -0.776246
1 0.161586 -0.243438 1.19045
1 0.147052 1.09196 0.467867
1 -0.94456 -0.345444 -0.123158
1 -0.219059 -1.07443 -0.539342
1 -0.330557 -0.928782 0.518754
1 -0.327382 -0.0218099 -1.0585
1 -0.772695 0.813949 -0.158326
1 -0.735353 0.237584 0.814499
1 0.0473492 -0.0279904 0.0181414
13
Atoms. Timestep: 50
1 1.16609 0.620429 0.0400553
1 0.70831 -0.841957 0.317497
1 0.710962 -0.367239 -0.708968
1 0.37941 1.09213 -0.776299
1 0.159941 -0.24842 1.18468
1 0.149175 1.09287 0.463882
1 -0.941995 -0.351537 -0.125382
1 -0.217132 -1.07334 -0.533482
1 -0.329937 -0.925436 0.516249
1 -0.326804 -0.0208134 -1.05166
1 -0.767888 0.813272 -0.155164
1 -0.73595 0.236794 0.811841
1 0.0458168 -0.026743 0.0167519
13
Atoms. Timestep: 51
1 1.16795 0.622235 0.0408798
1 0.704148 -0.840003 0.319462
1 0.706069 -0.36832 -0.709521
1 0.377672 1.09387 -0.775999
1 0.15863 -0.253258 1.17883
1 0.151275 1.09338 0.459663
1 -0.940093 -0.357322 -0.127964
1 -0.214886 -1.072 -0.527881
1 -0.329698 -0.922434 0.514283
1 -0.326155 -0.0197844 -1.04445
1 -0.762771 0.812289 -0.152083
1 -0.736478 0.236018 0.808934
1 0.0443349 -0.0246744 0.0158459
13
Atoms. Timestep: 52
1 1.16936 0.623903 0.041598
1 0.700329 -0.83798 0.321315
1 0.701419 -0.369505 -0.710369
1 0.375808 1.09526 -0.775342
1 0.157685 -0.257898 1.17296
1 0.153365 1.09348 0.455221
1 -0.938926 -0.362743 -0.130914
1 -0.21229 -1.07043 -0.522621
1 -0.329908 -0.919857 0.512932
1 -0.325452 -0.0187128 -1.03691
1 -0.757362 0.811005 -0.149113
1 -0.73694 0.235244 0.805795
1 0.0429171 -0.0217651 0.0154537
13
Atoms. Timestep: 53
1 1.17031 0.625432 0.0422095
1 0.696907 -0.835891 0.323033
1 0.697036 -0.370802 -0.711508
1 0.373814 1.09628 -0.774325
1 0.157135 -0.26228 1.16713
1 0.155456 1.09319 0.450567
1 -0.938548 -0.367745 -0.134236
1 -0.209314 -1.0687 -0.517784
1 -0.330635 -0.917776 0.512251
1 -0.324716 -0.0175864 -1.02909
1 -0.751684 0.809427 -0.146287
1 -0.73734 0.234456 0.802444
1 0.0415775 -0.018016 0.0155994
13
Atoms. Timestep: 54
1 1.17081 0.626823 0.042714
1 0.693925 -0.83374 0.324594
1 0.692935 -0.372214 -0.712924
1 0.371691 1.09694 -0.772947
1 0.157012 -0.26634 1.16141
1 0.157566 1.09252 0.445712
1 -0.938992 -0.372281 -0.137923
1 -0.20593 -1.06683 -0.513438
1 -0.331946 -0.916252 0.512274
1 -0.323965 -0.0163908 -1.02104
1 -0.745762 0.807569 -0.143642
1 -0.73768 0.233638 0.798904
1 0.0403324 -0.0134512 0.0163003
13
Atoms. Timestep: 55
1 1.17087 0.628076 0.0431108
1 0.691412 -0.831528 0.325973
1 0.689127 -0.373738 -0.714591
1 0.369436 1.09723 -0.771205
1 0.157347 -0.270009 1.15588
1 0.159711 1.09148 0.440675
1 -0.940266 -0.376315 -0.141954
1 -0.202114 -1.06486 -0.509639
1 -0.333903 -0.915332 0.513005
1 -0.323223 -0.0151098 -1.0128
1 -0.73963 0.805448 -0.141222
1 -0.737966 0.232772 0.795208
1 0.0392008 -0.00811967 0.0175667
13
Atoms. Timestep: 56
1 1.17048 0.629192 0.0433992
1 0.689379 -0.829256 0.327143
1 0.685618 -0.375366 -0.716477
1 0.367047 1.09715 -0.769098
1 0.158166 -0.273218 1.1506
1 0.161912 1.09009 0.435475
1 -0.942351 -0.379823 -0.146299
1 -0.197853 -1.06283 -0.506424
1 -0.336559 -0.915045 0.514418
1 -0.322513 -0.0137252 -1.00445
1 -0.733327 0.803088 -0.139076
1 -0.738204 0.231837 0.79139
1 0.038207 -0.00209463 0.019401
13
Atoms. Timestep: 57
1 1.16964 0.630168 0.0435783
1 0.687821 -0.826929 0.328082
1 0.682409 -0.377081 -0.718541
1 0.364524 1.0967 -0.766624
1 0.159491 -0.275903 1.14565
1 0.164191 1.08836 0.430136
1 -0.945207 -0.382795 -0.150915
1 -0.193142 -1.06075 -0.503805
1 -0.339955 -0.915404 0.516458
1 -0.321855 -0.0122175 -0.996048
1 -0.726902 0.800519 -0.137257
1 -0.738402 0.23081 0.787492
1 0.037382 0.00452744 0.0217979
13
Atoms. Timestep: 58
1 1.16837 0.631002 0.0436468
1 0.686714 -0.824548 0.328764
1 0.679501 -0.378866 -0.720739
1 0.361863 1.09587 -0.763783
1 0.161337 -0.278007 1.14107
1 0.166575 1.08632 0.424688
1 -0.948769 -0.385237 -0.155752
1 -0.187991 -1.05864 -0.50177
1 -0.344112 -0.916401 0.51905
1 -0.321273 -0.0105659 -0.987656
1 -0.720412 0.797779 -0.135824
1 -0.738572 0.229669 0.783562
1 0.0367663 0.0116291 0.024744
13
Atoms. Timestep: 59
1 1.16667 0.631692 0.043603
1 0.68602 -0.82212 0.329169
1 0.676894 -0.380694 -0.723025
1 0.359064 1.09465 -0.760576
1 0.163704 -0.279483 1.13692
1 0.169091 1.084 0.419165
1 -0.952962 -0.387167 -0.160753
1 -0.182422 -1.0565 -0.500286
1 -0.349031 -0.918012 0.522102
1 -0.320785 -0.00874907 -0.979343
1 -0.713925 0.794913 -0.13484
1 -0.738727 0.228389 0.779651
1 0.0364116 0.0190744 0.0282174
13
Atoms. Timestep: 60
1 1.16454 0.632233 0.0434447
1 0.685689 -0.819652 0.329277
1 0.674593 -0.382536 -0.725355
1 0.356124 1.09305 -0.757006
1 0.166583 -0.280306 1.13321
1 0.171769 1.08145 0.413607
1 -0.957699 -0.388613 -0.165858
1 -0.176472 -1.05433 -0.499299
1 -0.354692 -0.920192 0.525519
1 -0.320407 -0.0067455 -0.971175
1 -0.707521 0.791977 -0.134371
1 -0.738886 0.226948 0.775816
1 0.0363816 0.0267117 0.0321876
13
Atoms. Timestep: 61
1 1.16199 0.632619 0.043169
1 0.685665 -0.817151 0.329071
1 0.672605 -0.384357 -0.727689
1 0.353044 1.09106 -0.753077
1 0.169947 -0.280463 1.12997
1 0.174636 1.07871 0.408061
1 -0.962887 -0.389612 -0.171006
1 -0.170189 -1.05212 -0.49874
1 -0.361051 -0.922882 0.529207
1 -0.32015 -0.00453447 -0.963214
1 -0.70129 0.789031 -0.134482
1 -0.739071 0.225323 0.772113
1 0.0367524 0.0343756 0.036615
13
Atoms. Timestep: 62
1 1.15904 0.632842 0.0427724
1 0.685885 -0.814628 0.328538
1 0.670942 -0.386119 -0.729991
1 0.349821 1.08867 -0.748799
1 0.173757 -0.279965 1.12718
1 0.177721 1.07585 0.40258
1 -0.968439 -0.390207 -0.176135
1 -0.163636 -1.04987 -0.498527
1 -0.368044 -0.926004 0.533084
1 -0.320018 -0.00209665 -0.955517
1 -0.695332 0.786146 -0.135239
1 -0.739306 0.223494 0.7686
1 0.0376101 0.04189 0.0414506
13
Atoms. Timestep: 63
1 1.1557 0.632894 0.0422501
1 0.686292 -0.812094 0.327668
1 0.669624 -0.387779 -0.732235
1 0.346456 1.08588 -0.744184
1 0.177962 -0.278836 1.12483
1 0.181047 1.07293 0.397227
1 -0.974269 -0.390443 -0.181188
1 -0.156884 -1.04758 -0.498575
1 -0.375593 -0.929473 0.537078
1 -0.32001 0.000585014 -0.948132
1 -0.689749 0.783394 -0.136699
1 -0.739621 0.221446 0.76533
1 0.0390469 0.0490714 0.0466362
13
Atoms. Timestep: 64
1 1.15199 0.632762 0.0415965
1 0.686828 -0.80956 0.326456
1 0.668674 -0.38929 -0.7344
1 0.342951 1.08269 -0.739249
1 0.182502 -0.277118 1.12286
1 0.18463 1.07005 0.392067
1 -0.9803 -0.390366 -0.186113
1 -0.150012 -1.04524 -0.498796
1 -0.383609 -0.933195 0.541132
1 -0.320118 0.00352435 -0.9411
1 -0.684645 0.780846 -0.13891
1 -0.740045 0.219167 0.762348
1 0.0411545 0.0557335 0.0521043
13
Atoms. Timestep: 65
1 1.14794 0.632433 0.0408042
1 0.687445 -0.80704 0.324899
1 0.668121 -0.390601 -0.736475
1 0.339308 1.07909 -0.734018
1 0.18731 -0.274859 1.12127
1 0.188476 1.06731 0.387173
1 -0.986463 -0.390021 -0.190859
1 -0.143108 -1.04288 -0.499104
1 -0.391997 -0.937075 0.545198
1 -0.320324 0.00673096 -0.93445
1 -0.680116 0.778569 -0.141902
1 -0.740606 0.21665 0.759689
1 0.0440146 0.0616948 0.0577789
13
Atoms. Timestep: 66
1 1.14358 0.631888 0.0398643
1 0.688102 -0.804547 0.322999
1 0.667997 -0.391657 -0.738454
1 0.335532 1.07508 -0.728521
1 0.192322 -0.272115 1.11999
1 0.192577 1.06481 0.382625
1 -0.9927 -0.38945 -0.195385
1 -0.13626 -1.04049 -0.499415
1 -0.400665 -0.941021 0.549242
1 -0.320607 0.0102092 -0.928206
1 -0.676236 0.776612 -0.145687
1 -0.74133 0.213895 0.757375
1 0.0476886 0.0667876 0.0635761
13
Atoms. Timestep: 67
1 1.13895 0.631106 0.0387661
1 0.688765 -0.802095 0.320765
1 0.668338 -0.392403 -0.740341
1 0.331627 1.07066 -0.7228
1 0.197475 -0.268943 1.119
1 0.196906 1.06266 0.378502
1 -0.998959 -0.38869 -0.199655
1 -0.129559 -1.03809 -0.499654
1 -0.409523 -0.944947 0.553233
1 -0.320937 0.013957 -0.922378
1 -0.673054 0.775008 -0.150249
1 -0.742236 0.210907 0.75541
1 0.0522067 0.0708693 0.0694058
13
Atoms. Timestep: 68
1 1.1341 0.630063 0.0374965
1 0.68941 -0.799703 0.318208
1 0.669179 -0.392779 -0.742143
1 0.327602 1.06583 -0.716902
1 0.20271 -0.265402 1.11826
1 0.20142 1.061 0.374887
1 -1.0052 -0.387777 -0.203637
1 -0.123095 -1.03572 -0.499752
1 -0.41849 -0.948775 0.557149
1 -0.321279 0.0179648 -0.916974
1 -0.670587 0.773765 -0.155546
1 -0.743334 0.207694 0.753781
1 0.0575609 0.0738328 0.0751735
13
Atoms. Timestep: 69
1 1.12909 0.62873 0.0360405
1 0.690023 -0.797389 0.315344
1 0.670553 -0.392732 -0.743873
1 0.323469 1.06059 -0.710887
1 0.207978 -0.261547 1.11775
1 0.206051 1.05994 0.371864
1 -1.01138 -0.386739 -0.20731
1 -0.116954 -1.03339 -0.499648
1 -0.427491 -0.952435 0.56097
1 -0.321595 0.0222142 -0.911994
1 -0.668817 0.77287 -0.161506
1 -0.744625 0.20427 0.752461
1 0.0637008 0.0756166 0.0807829
13
Atoms. Timestep: 70
1 1.12398 0.627076 0.0343809
1 0.690598 -0.795176 0.312197
1 0.672484 -0.392207 -0.745547
1 0.31924 1.05494 -0.704824
1 0.213237 -0.25743 1.11747
1 0.210715 1.05956 0.369512
1 -1.01748 -0.385601 -0.210656
1 -0.111212 -1.03112 -0.499292
1 -0.436464 -0.95587 0.56468
1 -0.321843 0.0266774 -0.907435
1 -0.667697 0.772289 -0.16803
1 -0.746098 0.20065 0.751407
1 0.0705366 0.0762106 0.0861386
13
Atoms. Timestep: 71
1 1.11886 0.625064 0.0324992
1 0.691141 -0.793094 0.308794
1 0.674992 -0.391162 -0.747179
1 0.314931 1.04889 -0.698791
1 0.218451 -0.2531 1.11739
1 0.215311 1.05994 0.367905
1 -1.02346 -0.384384 -0.213665
1 -0.105934 -1.02893 -0.498642
1 -0.445355 -0.95903 0.568264
1 -0.32198 0.0313155 -0.903297
1 -0.667163 0.771981 -0.175
1 -0.747731 0.196848 0.750567
1 0.0779454 0.075659 0.0911496
13
Atoms. Timestep: 72
1 1.11378 0.622659 0.0303764