units metal
dimension 3
atom_style atomic
atom_modify map array
boundary f f f
region mybox block -5 5 -5 5 -5 5
read_data starting_configuration.lj
Reading data file ...
  orthogonal box = (-5.0000000 -5.0000000 -5.0000000) to (5.0000000 5.0000000 5.0000000)
  1 by 1 by 1 MPI processor grid
  reading atoms ...
  13 atoms
  read_data CPU = 0.000 seconds
mass 1 39.948
velocity all create 78.0 1 mom yes rot yes dist gaussian
pair_style hybrid lj/cut 4.0
pair_coeff 1 1 lj/cut 0.01034 1.0
compute S all pressure NULL virial
fix vir all ave/time 1 1 1 c_S[1] c_S[2] c_S[3] c_S[6] c_S[5] c_S[4] file LJ_MD/TEMP/tmp.virial
compute rdf all rdf 100
fix frdf all ave/time 1 9999 10000 c_rdf[*] file LJ_MD/TEMP/tmp.rdf mode vector
compute pe all pe
fix fpe all ave/time 1 1 1 c_pe file LJ_MD/TEMP/tmp.pe
compute msd all msd com yes
fix fmsd all ave/time 1 1 1 c_msd[4] file LJ_MD/TEMP/tmp.msd
thermo 1
fix l0 all nve langevin 78.0 78.0 1 1
timestep 0.005
dump 1 all xyz 1 LJ_MD/TEMP/dump.xyz
dump 2 all custom 1 LJ_MD/TEMP/dump.positions_and_forces type id x y z fx fy fz
run 10000
Neighbor list info ...
  update every 1 steps, delay 10 steps, check yes
  max neighbors/atom: 2000, page size: 100000
  master list distance cutoff = 6
  ghost atom cutoff = 6
  binsize = 3, bins = 4 4 4
  2 neighbor lists, perpetual/occasional/extra = 1 1 0
  (1) pair lj/cut, perpetual
      attributes: half, newton on
      pair build: half/bin/atomonly/newton
      stencil: half/bin/3d
      bin: standard
  (2) compute rdf, occasional, copy from (1)
      attributes: half, newton on
      pair build: copy
      stencil: none
      bin: none
Per MPI rank memory allocation (min/avg/max) = 5.667 | 5.667 | 5.667 Mbytes
Step Temp E_pair E_mol TotEng Press 
       0           78  -0.45833913            0  -0.33735163    129.22983 
       1     77.05605  -0.45689684            0  -0.33737352    153.58201 
       2    74.168811  -0.45243602            0  -0.33739116    200.47016 
       3    69.295042  -0.44487936            0  -0.33739431    268.98194 
       4    62.585462  -0.43444613            0  -0.33736846    355.48031 
       5    54.511537  -0.42185406            0  -0.33730003    452.47495 
       6    45.968557  -0.40848815            0  -0.33718533    547.88173 
       7    38.266969  -0.39639958            0  -0.33704285    625.54983 
       8    32.900486  -0.38795687            0  -0.33692421    668.09725 
       9    31.028172  -0.38502821            0  -0.33689974    662.61779 
      10    32.853648  -0.38796014            0  -0.33700014    607.36657 
      11    37.389571  -0.39516876            0  -0.33717298    514.20852 
      12    42.917597  -0.40389723            0  -0.33732681    403.42582 
      13    47.797377  -0.41154676            0  -0.33740721    294.73776 
      14    51.010649  -0.41653934            0  -0.33741561    201.23444 
      15     52.22662  -0.41838984            0  -0.33737999    128.43564 
      16    51.589942  -0.41734914            0  -0.33732686    76.318814 
      17    49.479987   -0.4140212            0  -0.33727171     41.76216 
      18    46.350801  -0.40911669            0  -0.33722096    20.277256 
      19    42.651841  -0.40333471            0  -0.33717651    6.9864977 
      20    38.793694  -0.39731303            0  -0.33713929   -2.8389649 
      21    35.127652  -0.39159802            0  -0.33711076   -13.396108 
      22    31.924539  -0.38661159            0  -0.33709275   -27.990134 
      23    29.353724  -0.38261743            0  -0.33708623   -48.716385 
      24    27.471943  -0.37970262            0  -0.33709029   -76.287882 
      25    26.231129  -0.37778956            0  -0.33710189   -110.10306 
      26    25.506542   -0.3766805            0  -0.33711674   -148.56088 
      27    25.136994  -0.37612134            0   -0.3371308   -189.52695 
      28    24.964181   -0.3758638            0  -0.33714132    -230.8026 
      29    24.860433  -0.37570884            0  -0.33714728   -270.47315 
      30    24.740837  -0.37552509            0  -0.33714904   -307.08456 
      31    24.562076  -0.37524645            0  -0.33714769   -339.66803 
      32    24.313492  -0.37485768            0  -0.33714449   -367.66898 
      33    24.005715  -0.37437633            0  -0.33714055   -390.83757 
      34    23.660319  -0.37383668            0  -0.33713664   -409.12032 
      35    23.301965  -0.37327747            0  -0.33713328   -422.57198 
      36    22.953166   -0.3727339            0  -0.33713074   -431.29212 
      37    22.631154  -0.37223283            0  -0.33712916     -435.384 
      38    22.346256  -0.37179033            0  -0.33712856   -434.93076 
      39    22.101282  -0.37141071            0  -0.33712893   -429.98493 
      40    21.891632  -0.37108677            0  -0.33713018   -420.56829 
      41    21.705992  -0.37080082            0  -0.33713218   -406.68073 
      42    21.527607  -0.37052668            0  -0.33713475   -388.31773 
      43    21.336215  -0.37023266            0   -0.3371376   -365.49652 
      44    21.110713  -0.36988568            0  -0.33714039   -338.29086 
      45    20.832584  -0.36945657            0   -0.3371427   -306.87367 
      46     20.48999  -0.36892652            0  -0.33714405   -271.56457 
      47    20.082171  -0.36829389            0    -0.337144   -232.87705 
      48    19.623501  -0.36758065            0  -0.33714222   -191.55641 
      49    19.146196  -0.36683669            0  -0.33713861   -148.59618 
      50    18.700489  -0.36614021            0  -0.33713348   -105.21967 
      51    18.351173  -0.36559243            0  -0.33712753   -62.815228 
      52    18.170035  -0.36530579            0  -0.33712186   -22.822009 
      53    18.224809  -0.36538664            0  -0.33711774    13.423552 
      54    18.566611   -0.3659154            0  -0.33711632    44.855256 
      55     19.21874  -0.36692893            0  -0.33711833     70.82258 
      56    20.169755  -0.36840959            0  -0.33712384    91.178914 
      57    21.372561  -0.37028381            0  -0.33713236     106.2912 
      58    22.749579  -0.37243027            0   -0.3371429    116.97013 
      59    24.202742  -0.37469556            0  -0.33715416    124.33684 
      60    25.626653  -0.37691476            0   -0.3371647    129.64831 
      61    26.923488   -0.3789346            0  -0.33717299    134.10244 
      62    28.018102  -0.38063719            0   -0.3371777     138.6453 
      63    28.870855  -0.38196027            0  -0.33717806    143.81172 
      64    29.484508  -0.38290833            0  -0.33717427    149.64189 
      65    29.901505  -0.38354861            0  -0.33716774    155.71364 
      66    30.190369  -0.38398964            0   -0.3371607    161.30227 
      67    30.424362  -0.38434735            0  -0.33715546    165.62954 
      68    30.659748  -0.38471047            0  -0.33715347    168.11646 
      69    30.921747  -0.38511825            0  -0.33715485    168.54633 
      70    31.202523  -0.38555755            0  -0.33715863    167.08707 
      71    31.469743  -0.38597672            0  -0.33716332    164.18828 
      72    31.680576   -0.3863079            0  -0.33716747    160.41263 
      73    31.795947  -0.38648937            0  -0.33716998    156.26402 
      74    31.791942  -0.38648335            0  -0.33717018    152.05245 
      75    31.667314  -0.38628761            0  -0.33716776    147.81182 
      76    31.447072  -0.38594097            0  -0.33716274    143.27164 
      77    31.182301  -0.38552307            0  -0.33715553    137.87861 
      78    30.945528  -0.38514739            0  -0.33714711    130.87016 
      79    30.820064  -0.38494486            0  -0.33713919    121.41064 
      80    30.882473  -0.38503648            0  -0.33713401     108.7947 
      81    31.180987  -0.38549897            0  -0.33713347    92.685195 
      82     31.71749  -0.38633585            0  -0.33713816    73.304195 
      83     32.44212  -0.38746852            0  -0.33714684    51.481617 
      84    33.264752  -0.38875457            0  -0.33715689    28.517532 
      85    34.079015  -0.39002626            0  -0.33716556    5.9059094 
      86    34.788392  -0.39113209            0  -0.33717106   -14.966853 
      87    35.324132  -0.39196507            0  -0.33717304   -33.037547 
      88    35.650125  -0.39247012            0  -0.33717244   -47.641695 
      89    35.756222  -0.39263302            0  -0.33717077   -58.461985 
      90    35.645516  -0.39245998            0  -0.33716945   -65.406421 
      91    35.322053  -0.39195807            0  -0.33716926   -68.484136 
      92    34.783901  -0.39112421            0  -0.33717014   -67.732099 
      93     34.02379  -0.38994627            0  -0.33717123   -63.217534 
      94    33.036758   -0.3884152            0  -0.33717117   -55.110835 
      95    31.832085  -0.38654399            0  -0.33716855   -43.800401 
      96    30.445529  -0.38438713            0  -0.33716241   -30.006338 
      97     28.94703  -0.38205309            0  -0.33715272   -14.841999 
      98    27.438993  -0.37970208            0  -0.33714086   0.22746631 
      99    26.041955  -0.37752372            0  -0.33712948    13.561085 
     100    24.869289  -0.37569686            0  -0.33712157    23.632676 
     101    23.999519  -0.37434522            0  -0.33711904    29.343555 
     102    23.458965  -0.37350936            0  -0.33712165    30.221179 
     103    23.223661  -0.37314992            0  -0.33712719    26.408198 
     104    23.238726  -0.37317896            0  -0.33713287    18.461489 
     105    23.443649  -0.37350068            0  -0.33713672    7.0838865 
     106    23.790783   -0.3740407            0   -0.3371383     -7.07613 
     107     24.25099  -0.37475455            0  -0.33713831   -23.492487 
     108    24.808525  -0.37561894            0   -0.3371379   -41.718402 
     109    25.451522  -0.37661636            0  -0.33713795   -61.298339 
     110    26.164163  -0.37772263            0  -0.33713882   -81.698335 
     111    26.923696  -0.37890225            0  -0.33714032   -102.28809 
     112    27.702314  -0.38011161            0  -0.33714195   -122.37477 
     113    28.471838  -0.38130651            0  -0.33714322   -141.26662 
     114    29.208672  -0.38245003            0  -0.33714382   -158.33864 
     115    29.897151  -0.38351779            0  -0.33714367   -173.07982 
     116    30.530587  -0.38449957            0  -0.33714292   -185.11364 
     117    31.110312  -0.38539767            0  -0.33714179   -194.19461 
     118    31.643616  -0.38622362            0  -0.33714052   -200.19048 
     119    32.141709  -0.38699492            0  -0.33713922   -203.06231 
     120     32.61872  -0.38773341            0   -0.3371378   -202.85333 
     121     33.09234  -0.38846625            0    -0.337136   -199.69355 
     122    33.585961  -0.38922942            0   -0.3371335    -193.8182 
     123    34.131112  -0.39007167            0  -0.33713016   -185.58747 
     124    34.767958  -0.39105563            0   -0.3371263   -175.48411 
     125    35.541333  -0.39225182            0  -0.33712289    -164.0626 
     126    36.490883  -0.39372326            0  -0.33712146   -151.83548 
     127    37.636461  -0.39550237            0  -0.33712364   -139.11048 
     128    38.963012  -0.39756694            0  -0.33713056   -125.82471 
     129     40.41056  -0.39982405            0  -0.33714236   -111.43815 
     130    41.873527  -0.40210906            0  -0.33715812   -94.934373 
     131    43.210165  -0.40420042            0  -0.33717619   -74.938882 
     132    44.259783  -0.40584676            0  -0.33719445   -49.931317 
     133    44.864646  -0.40680108            0  -0.33721055   -18.515393 
     134    44.894523  -0.40685879            0  -0.33722191    20.281979 
     135    44.272848  -0.40589844            0  -0.33722587    66.703471 
     136    43.002311  -0.40392205            0  -0.33722023    119.98024 
     137    41.183662  -0.40108535            0  -0.33720448    178.15061 
     138    39.016774  -0.39770089            0  -0.33718112     238.0959 
     139    36.773193  -0.39419559            0  -0.33715589    295.90206 
     140    34.740128  -0.39102195            0  -0.33713578    347.53662 
     141    33.154622  -0.38855241            0  -0.33712555    389.62753 
     142    32.158058  -0.38700648            0  -0.33712542    420.00726 
     143    31.789958  -0.38644233            0  -0.33713224     437.8102 
     144    32.011635  -0.38679698            0  -0.33714304    443.22284 
     145    32.730475  -0.38792666            0  -0.33715771    437.20439 
     146    33.803307  -0.38961118            0  -0.33717813    421.41634 
     147    35.025919  -0.39153397            0  -0.33720451    398.29398 
     148    36.138828  -0.39328801            0  -0.33723229    370.94392 
     149    36.873717  -0.39444843            0  -0.33725281    342.61076 
     150    37.034221  -0.39470185            0  -0.33725726    315.78706 
     151    36.576529   -0.3939757            0  -0.33724105    291.34255 
     152    35.649063  -0.39250292            0  -0.33720688    268.10614 
     153    34.562497  -0.39077621            0  -0.33716557    243.19868 
     154     33.68574  -0.38938347            0  -0.33713279    213.15541 
     155    33.302248   -0.3887769            0  -0.33712105    175.47102 
     156    33.498193  -0.38909167            0  -0.33713189    129.80271 
     157    34.148086  -0.39012326            0  -0.33715542    78.124306 
     158    35.000661  -0.39146832            0  -0.33717804    23.799077 
     159    35.801739  -0.39272348            0  -0.33719063   -29.750577 
     160    36.382332  -0.39362483            0   -0.3371914   -80.011166 
     161    36.682843   -0.3940833            0  -0.33718375    -125.6727 
     162    36.728054   -0.3941423            0  -0.33717261   -166.39758 
     163    36.583753  -0.39390782            0  -0.33716197   -202.38079 
     164    36.319551  -0.39348982            0  -0.33715378   -233.95837 
     165    35.988773  -0.39297116            0  -0.33714819   -261.38409 
     166    35.624741  -0.39240273            0  -0.33714441   -284.77476 
     167    35.246655  -0.39181335            0   -0.3371415   -304.15817 
     168    34.867501  -0.39122263            0  -0.33713889    -319.5467 
     169    34.499207  -0.39064896            0  -0.33713649    -330.9859 
     170    34.153799  -0.39011119            0  -0.33713449   -338.56425 
     171    33.841825  -0.38962594            0  -0.33713315   -342.39572 
     172    33.570101  -0.38920393            0  -0.33713262   -342.59589 
     173    33.340305  -0.38884773            0  -0.33713286   -339.26721 
     174    33.149037   -0.3885519            0  -0.33713371   -332.49939 
     175    32.989125  -0.38830508            0  -0.33713493   -322.38256 
     176    32.851704  -0.38809325            0  -0.33713626    -309.0276 
     177    32.728567  -0.38790341            0  -0.33713742   -292.58769 
     178    32.614458   -0.3877272            0   -0.3371382   -273.27715 
     179    32.508944  -0.38756381            0  -0.33713848   -251.38322 
     180    32.417322  -0.38742152            0   -0.3371383   -227.26561 
     181    32.349903   -0.3873166            0  -0.33713796    -201.3372 
     182    32.319061  -0.38726881            0  -0.33713801   -174.02171 
     183    32.334011  -0.38729318            0   -0.3371392   -145.68966 
     184    32.393939  -0.38738929            0  -0.33714235    -116.5821 
     185    32.480744  -0.38752979            0   -0.3371482   -86.737542 
     186    32.553092  -0.38765097            0  -0.33715716   -55.941455 
     187    32.544414   -0.3876492            0  -0.33716885   -23.724785 
     188    32.369552  -0.38739039            0  -0.33718127    10.544093 
     189    31.947595  -0.38674443            0  -0.33718983    47.404838 
     190    31.247816  -0.38565654            0  -0.33718738     86.82654 
     191    30.353727  -0.38424976            0  -0.33716744    127.56043 
     192    29.511581  -0.38290739            0  -0.33713134    166.66133 
     193    29.100739  -0.38223318            0  -0.33709439     199.8123 
     194    29.484053  -0.38281364            0  -0.33708029    222.89514 
     195    30.798692  -0.38487469            0  -0.33710217    234.19677 
     196    32.844993   -0.3880963            0  -0.33714972    235.58677 
     197    35.174748  -0.39175914            0  -0.33719883     231.5762 
     198    37.304608  -0.39509482            0  -0.33723083    227.05693 
     199    38.896314  -0.39757338            0  -0.33724046    225.40242 
     200    39.823498  -0.39900248            0  -0.33723138    227.75877 
     201    40.148964  -0.39948596            0  -0.33721003    233.27368 
     202     40.06432  -0.39932781            0  -0.33718317    239.74074 
     203    39.819401  -0.39892274            0    -0.337158    244.38175 
     204    39.648281  -0.39864079            0  -0.33714148    244.68285 
     205    39.701361   -0.3987197            0  -0.33713806    239.15989 
     206    40.003849   -0.3991984            0  -0.33714756     227.8167 
     207    40.457453  -0.39992001            0  -0.33716557    212.10824 
     208    40.881133  -0.40059782            0  -0.33718621    194.45784 
     209    41.067228  -0.40090508            0  -0.33720481    177.59265 
     210    40.828578  -0.40054898            0  -0.33721889    163.96945 
     211    40.026787  -0.39931382            0   -0.3372274    155.40544 
     212    38.586131  -0.39708143            0  -0.33722964     152.8756 
     213    36.502758  -0.39384466            0  -0.33722444    156.38359 
     214    33.856094  -0.38972499            0  -0.33721007    164.84057 
     215    30.822959   -0.3849952            0  -0.33718503    175.95169 
     216    27.686163  -0.38009458            0  -0.33714997    186.19713 
     217    24.819938  -0.37560877            0  -0.33711002    191.08659 
     218    22.632429   -0.3721813            0  -0.33707565    185.88208 
     219    21.462506  -0.37035022            0  -0.33705926    166.79724 
     220    21.464025  -0.37036166            0  -0.33706834    132.30027 
     221    22.538656  -0.37206006            0  -0.33709986    83.851854 
     222    24.364397  -0.37493346            0  -0.33714131    25.570232 
     223    26.509933  -0.37829822            0  -0.33717809   -37.061612 
     224    28.571544  -0.38151891            0  -0.33720097   -98.750029 
     225    30.266376  -0.38415518            0  -0.33720835   -155.48083 
     226    31.457693   -0.3859985            0  -0.33720378   -204.87383 
     227    32.129801  -0.38702958            0  -0.33719235    -245.9805 
     228    32.344148  -0.38734801            0   -0.3371783   -278.85199 
     229    32.199203  -0.38710925            0  -0.33716437   -304.11719 
     230    31.802815  -0.38648197            0  -0.33715193   -322.67007 
     231    31.256618  -0.38562435            0  -0.33714153   -335.47285 
     232    30.648838  -0.38467333            0  -0.33713325   -343.44486 
     233    30.051793  -0.38374099            0    -0.337127   -347.40409 
     234    29.521559  -0.38291416            0  -0.33712263   -348.03715 
     235    29.098396  -0.38225518            0  -0.33712003   -345.88375 
     236    28.807352   -0.3818028            0  -0.33711909   -341.32933 
     237    28.658951  -0.38157324            0  -0.33711972   -334.60425 
     238    28.650034  -0.38156149            0   -0.3371218   -325.78987 
     239    28.764876  -0.38174304            0  -0.33712521   -314.83177 
     240    28.976628  -0.38207606            0  -0.33712979   -301.56038 
     241    29.249184  -0.38250436            0  -0.33713531   -285.71919 
     242     29.53965  -0.38296109            0   -0.3371415   -267.00153 
     243    29.801727  -0.38337402            0  -0.33714792   -245.09846 
     244    29.990286  -0.38367258            0  -0.33715399    -219.7595 
     245    30.067129  -0.38379686            0  -0.33715908   -190.86484 
     246     30.00718  -0.38370742            0  -0.33716263   -158.50016 
     247    29.803704  -0.38339347            0   -0.3371643   -123.01798 
     248    29.471224  -0.38287745            0  -0.33716399    -85.06976 
     249    29.046363  -0.38221598            0  -0.33716153    -45.60872 
     250    28.589127   -0.3815015            0  -0.33715628   -5.8860961 
     251    28.187363  -0.38086932            0  -0.33714728     32.53263 
     252    27.962302  -0.38050732            0  -0.33713439    67.752718 
     253    28.065064  -0.38065222            0  -0.33711989    97.638492 
     254    28.651612  -0.38155096            0  -0.33710882    120.13049 
     255    29.835743  -0.38338549            0  -0.33710662    133.78903 
     256    31.641111  -0.38619467            0  -0.33711545    138.33394 
     257    33.982555  -0.38984376            0  -0.33713269    134.85044 
     258    36.689349  -0.39406266            0  -0.33715302    125.52222 
     259    39.552954  -0.39852354            0  -0.33717209    113.07938 
     260    42.369299   -0.4029082            0  -0.33718826    100.28694 
     261    44.959136  -0.40693886            0  -0.33720176    89.656443 
     262    47.171201  -0.41038128            0  -0.33721301    83.339485 
     263     48.88185  -0.41304336            0  -0.33722166    83.066902 
     264     49.99969  -0.41478237            0  -0.33722676    90.050089 
     265    50.474523  -0.41551961            0  -0.33722748    104.85456 
     266    50.305176  -0.41525297            0  -0.33722351    127.30361 
     267    49.541734  -0.41406053            0  -0.33721527    156.45949 
     268    48.281202  -0.41209357            0  -0.33720355    190.69227 
     269     46.65881  -0.40956268            0  -0.33718918    227.81226 
     270    44.838129  -0.40672231            0  -0.33717292    265.23006 
     271    43.001235  -0.40385581            0  -0.33715566    300.12595 
     272    41.336512  -0.40125703            0  -0.33713907    329.64832 
     273    40.020044  -0.39920164            0  -0.33712568    351.17866 
     274    39.189984  -0.39790669            0  -0.33711825    362.66461 
     275    38.919888  -0.39748817            0  -0.33711869    362.95179 
     276    39.200794  -0.39793243            0  -0.33712723    352.00413 
     277    39.939295  -0.39909303            0  -0.33714233    330.93005 
     278    40.973032  -0.40071522            0  -0.33716106    301.79747 
     279    42.100043  -0.40248204            0  -0.33717975    267.27765 
     280    43.115466  -0.40407214            0  -0.33719481    230.19458 
     281    43.847673  -0.40521656            0  -0.33720348    193.07531 
     282    44.186258  -0.40574266            0  -0.33720439     157.7934 
     283    44.096644  -0.40559698            0  -0.33719771    125.37016 
     284    43.619276  -0.40484387            0  -0.33718506    95.958768 
     285    42.854322  -0.40364146            0  -0.33716919    69.001156 
     286     41.93518  -0.40219997            0   -0.3371534    43.518171 
     287    40.996443  -0.40073128            0  -0.33714081    18.466823 
     288    40.143984  -0.39940169            0  -0.33713349   -6.9231389 
     289     39.43492  -0.39830028            0  -0.33713192   -32.921218 
     290    38.872254   -0.3974307            0   -0.3371351   -59.230929 
     291    38.413719  -0.39672545            0   -0.3371411     -85.0837 
     292     37.98965  -0.39607439            0  -0.33714782   -109.43621 
     293    37.522918  -0.39535621            0   -0.3371536   -131.19542 
     294    36.945447   -0.3944643            0  -0.33715742   -149.40979 
     295    36.208774  -0.39332309            0  -0.33715887   -163.39674 
     296    35.288756  -0.39189516            0    -0.337158   -172.80394 
     297    34.185831  -0.39018149            0   -0.3371551   -177.61728 
     298    32.922346   -0.3882172            0  -0.33715063    -178.1309 
     299    31.538069  -0.38606453            0  -0.33714515   -174.89151 
     300    30.084505  -0.38380401            0  -0.33713928   -168.62522 
     301    28.618501  -0.38152444            0  -0.33713366   -160.15406 
     302    27.195784  -0.37931281            0  -0.33712884   -150.31107 
     303    25.865372   -0.3772455            0  -0.33712516   -139.86565 
     304    24.665888  -0.37538251            0  -0.33712271   -129.47115 
     305     23.62448  -0.37376573            0  -0.33712128   -119.64287 
     306     22.75833  -0.37242144            0   -0.3371205   -110.76602 
     307    22.077863  -0.37136542            0  -0.33711997   -103.12383 
     308    21.590169  -0.37060843            0  -0.33711945   -96.929566 
     309    21.301126   -0.3701596            0  -0.33711896   -92.345808 
     310    21.215183  -0.37002612            0  -0.33711879   -89.479843 
     311    21.332624  -0.37020894            0  -0.33711945   -88.353406 
     312    21.645041  -0.37069558            0  -0.33712149   -88.854987 
     313    22.130431  -0.37145233            0  -0.33712534   -90.690629 
     314    22.749628  -0.37241856            0  -0.33713112   -93.352066 
     315    23.445474   -0.3735054            0  -0.33713861   -96.118021 
     316    24.145424  -0.37459975            0  -0.33714726   -98.096157 
     317     24.76735  -0.37557343            0  -0.33715625   -98.302966 
     318    25.227632  -0.37629583            0  -0.33716471    -95.77063 
     319    25.450317  -0.37664825            0  -0.33717171    -89.66623 
     320    25.376265  -0.37653813            0  -0.33717645   -79.409069 
     321    24.971372  -0.37591192            0  -0.33717828      -64.774 
     322    24.233141  -0.37476531            0  -0.33717676   -45.970174 
     323    23.194824  -0.37314975            0  -0.33717176   -23.684993 
     324    21.926369  -0.37117398            0  -0.33716352   0.91629442 
     325    20.531572   -0.3689996            0  -0.33715263    26.242246 
     326    19.141248  -0.36683044            0  -0.33714004     50.38013 
     327    17.902581  -0.36489605            0  -0.33712697    71.251268 
     328    16.964939  -0.36342967            0  -0.33711498    86.811798 
     329    16.462292  -0.36264096            0  -0.33710594    95.292762 
     330    16.493016  -0.36268448            0  -0.33710181    95.464467 
     331     17.09999  -0.36362819            0  -0.33710402    86.884967 
     332    18.256942  -0.36543148            0  -0.33711274    70.059856 
     333    19.868088  -0.36794419            0  -0.33712637      46.4329 
     334    21.784475  -0.37093231            0  -0.33714194     18.17196 
     335    23.833426  -0.37412468            0  -0.33715613    -12.20284 
     336    25.851518  -0.37726528            0  -0.33716643   -42.235025 
     337    27.710706  -0.38015438            0   -0.3371717   -69.870094 
     338    29.331416   -0.3826688            0   -0.3371722    -93.64282 
     339    30.682352  -0.38476116            0   -0.3371691    -112.7077 
     340    31.771148  -0.38644477            0  -0.33716385   -126.75576 
     341    32.631137  -0.38777271            0  -0.33715784   -135.87599 
     342    33.308337  -0.38881742            0  -0.33715213    -140.4082 
     343    33.850637  -0.38965398            0  -0.33714753   -140.81234 
     344    34.299448  -0.39034725            0  -0.33714463    -137.5611 
     345    34.683348  -0.39094198            0  -0.33714388   -131.05442 
     346    35.013379  -0.39145558            0  -0.33714557   -121.55502 
     347    35.280342  -0.39187378            0  -0.33714967   -109.15061 
     348    35.455072  -0.39215088            0  -0.33715575   -93.754148 
     349    35.492903  -0.39221664            0  -0.33716283   -75.154488 
     350    35.343036   -0.3919908            0  -0.33716945   -53.123342 
     351    34.962414  -0.39140481            0  -0.33717385   -27.570783 
     352     34.33206  -0.39042755            0  -0.33717435     1.276386 
     353    33.472012  -0.38908908            0  -0.33716992    32.718417 
     354    32.449556  -0.38749401            0  -0.33716079    65.507426 
     355    31.375442  -0.38581591            0  -0.33714878    97.909577 
     356    30.385535  -0.38426863            0  -0.33713697    127.92971 
     357    29.610871  -0.38305887            0  -0.33712881    153.66304 
     358    29.145119  -0.38233441            0  -0.33712679    173.67362 
     359    29.020978  -0.38214663            0  -0.33713156    187.27206 
     360    29.203764  -0.38244049            0  -0.33714189    194.60063 
     361    29.602959  -0.38307318            0  -0.33715539    196.51381 
     362    30.095868  -0.38385166            0   -0.3371693    194.31592 
     363    30.555814  -0.38457675            0  -0.33718096    189.43925 
     364    30.880795  -0.38508741            0  -0.33718753    183.11371 
     365    31.022601  -0.38530584            0  -0.33718601    176.03857 
     366    31.014368  -0.38528139            0  -0.33717433    168.08504 
     367    30.984196  -0.38521441            0  -0.33715415    158.16024 
     368    31.131951  -0.38542245            0    -0.337133    144.46689 
     369     31.65445  -0.38622233            0  -0.33712243    125.30816 
     370    32.640985  -0.38776099            0  -0.33713085    100.20197 
     371    34.000349  -0.38989572            0  -0.33715704    70.648024 
     372    35.472429  -0.39221314            0  -0.33719109    39.973834 
     373    36.716759  -0.39417383            0  -0.33722166    12.341153 
     374    37.418795  -0.39528304            0  -0.33724193   -8.4475181 
     375    37.361222  -0.39520193            0  -0.33725013   -19.774938 
     376    36.449968  -0.39378521            0  -0.33724688   -20.547328 
     377    34.714276  -0.39107892            0  -0.33723285   -11.232266 
     378    32.300918  -0.38731096            0   -0.3372083    6.2075504 
     379    29.467319  -0.38288178            0  -0.33717438    28.439019 
     380     26.56335  -0.37833803            0  -0.33713504    51.041807 
     381    23.986743   -0.3743042            0  -0.33709785    69.092744 
     382    22.107327  -0.37136338            0  -0.33707222    78.083387 
     383    21.177653  -0.36991445            0  -0.33706533     74.96622 
     384    21.266455  -0.37006512            0  -0.33707826    58.925264 
     385    22.247262   -0.3716139            0  -0.33710569    31.515038 
     386    23.846026  -0.37412704            0  -0.33713895   -3.8752987 
     387    25.721914  -0.37706772            0   -0.3371699   -42.949358 
     388    27.546905  -0.37992177            0  -0.33719317   -81.443161 
     389    29.061922  -0.38228503            0  -0.33720645   -115.82354 
     390    30.104465  -0.38390533            0  -0.33720964    -143.6737 
     391     30.61366  -0.38468939            0  -0.33720388   -163.81361 
     392     30.62138   -0.3846884            0  -0.33719091    -176.2389 
     393    30.235389  -0.38407174            0  -0.33717297   -181.94117 
     394    29.616236  -0.38309136            0  -0.33715298   -182.63354 
     395    28.947472  -0.38203551            0  -0.33713446   -180.38646 
     396    28.400891  -0.38117409            0  -0.33712085   -177.20234 
     397    28.103412  -0.38070622            0  -0.33711441    -174.6099 
     398    28.115482  -0.38072586            0  -0.33711533   -173.39262 
     399    28.428164  -0.38121743            0  -0.33712188   -173.53388 
     400    28.978141  -0.38208001            0  -0.33713138   -174.37338 
     401    29.672499  -0.38316693            0  -0.33714127   -174.88607 
     402    30.413191  -0.38432439            0  -0.33714983   -173.97121 
     403    31.114712  -0.38541893            0  -0.33715622   -170.67538 
     404    31.713684    -0.386352            0  -0.33716022   -164.32797 
     405    32.172548  -0.38706534            0   -0.3371618   -154.60559 
     406    32.480302   -0.3875419            0    -0.337161   -141.55189 
     407    32.652217   -0.3878054            0  -0.33715784   -125.57096 
     408    32.728768   -0.3879188            0   -0.3371525   -107.39725 
     409    32.772719  -0.38797998            0  -0.33714551   -88.033112 
     410    32.862667  -0.38811191            0  -0.33713791   -68.641132 
     411    33.081939  -0.38844535            0  -0.33713124    -50.38591 
     412    33.503413  -0.38909505            0  -0.33712717   -34.238748 
     413    34.173295  -0.39013399            0  -0.33712705   -20.783652 
     414    35.098807  -0.39157383            0  -0.33713131   -10.080546 
     415    36.244297  -0.39335867            0  -0.33713935   -1.6344156 
     416    37.536739  -0.39537414            0  -0.33715009    5.5211524 
     417    38.876333  -0.39746466            0  -0.33716273    12.673466 
     418    40.145088  -0.39944732            0   -0.3371774     21.29089 
     419    41.209163  -0.40111511            0  -0.33719468    32.940436 
     420    41.919059  -0.40223572            0  -0.33721415    49.223867 
     421    42.120686  -0.40256675            0  -0.33723244    71.604386 
     422    41.693516  -0.40191369            0  -0.33724197    100.97024 
     423    40.623801  -0.40024464            0  -0.33723218    136.87333 
     424    39.095545  -0.39783744            0  -0.33719549    176.63727 
     425    37.539008   -0.3953658            0  -0.33713823    214.95308 
     426    36.543974  -0.39377208            0  -0.33708793    244.90728 
     427    36.596335  -0.39384605            0  -0.33708068    260.87023 
     428     37.76546  -0.39570875            0  -0.33712992    261.89041 
     429    39.597003  -0.39863061            0  -0.33721083     252.8303 
     430    41.329954  -0.40138942            0  -0.33728163    241.94542 
     431    42.271918  -0.40288272            0  -0.33731383    236.75036 
     432    42.078649  -0.40257058            0  -0.33730147    240.94396 
     433    40.832876  -0.40059114            0  -0.33725438     253.5131 
     434      38.9607  -0.39762383            0  -0.33719104    269.61721 
     435    37.052596  -0.39460683            0  -0.33713375    282.56046 
     436    35.647493  -0.39239507            0  -0.33710147    286.21713 
     437    35.052482  -0.39147183            0  -0.33710117    277.09054 
     438    35.273904  -0.39183899            0  -0.33712487    255.14333 
     439    36.083598   -0.3931262            0  -0.33715614    223.11718 
     440    37.165795  -0.39482893            0  -0.33718026    184.93087 
     441    38.255411  -0.39652932            0  -0.33719052    144.13165 
     442    39.207633  -0.39800426            0  -0.33718844    103.06309 
     443     39.99171  -0.39921226            0  -0.33718025    62.847107 
     444    40.638421  -0.40020767            0  -0.33717253    23.884468 
     445    41.180991  -0.40104575            0  -0.33716902   -13.542552 
     446    41.619546  -0.40172671            0  -0.33716972   -48.892585 
     447    41.918907  -0.40219344            0  -0.33717211   -81.330123 
     448    42.029772  -0.40236659            0  -0.33717329   -109.93886 
     449    41.914685  -0.40218638            0   -0.3371716   -133.99154 
     450    41.564398  -0.40163836            0  -0.33716692   -153.12396 
     451    41.000215  -0.40075661            0  -0.33716028   -167.36273 
     452    40.265611  -0.39961001            0  -0.33715315   -177.03766 
     453    39.413012   -0.3982813            0  -0.33714692   -182.63861 
     454    38.490699   -0.3968464            0  -0.33714264   -184.66967 
     455    37.532743  -0.39535875            0  -0.33714089   -183.53413 
     456    36.553194  -0.39384026            0  -0.33714181   -179.46653 
     457    35.544734  -0.39227931            0   -0.3371451    -172.5165 
     458    34.481512   -0.3906351            0  -0.33715007   -162.58285 
     459    33.325856  -0.38884815            0  -0.33715569   -149.49365 
     460    32.038673  -0.38685638            0   -0.3371605   -133.12775 
     461     30.59342  -0.38461684            0  -0.33716272   -113.57204 
     462    28.992983  -0.38213204            0  -0.33716039   -91.301862 
     463    27.287206  -0.37947767            0  -0.33715189   -67.354851 
     464    25.585753  -0.37682351            0  -0.33713689   -43.438866 
     465    24.057749  -0.37443389            0  -0.33711739    -21.88338 
     466    22.909075    -0.372633            0  -0.33709824   -5.3427223 
     467    22.334723  -0.37172986            0  -0.33708599    3.7689939 
     468    22.457672  -0.37192071            0  -0.33708612    3.9800728 
     469    23.279496   -0.3732094            0  -0.33710007   -4.6778865 
     470    24.667779  -0.37538718            0  -0.33712446    -20.52817 
     471    26.386936  -0.37808245            0   -0.3371531   -40.602418 
     472    28.155223  -0.38085239            0  -0.33718022    -61.30494 
     473    29.700727   -0.3832718            0  -0.33720236   -79.090195 
     474    30.797818  -0.38498971            0  -0.33721854   -90.944926 
     475    31.282036  -0.38575123            0  -0.33722898   -94.640051 
     476    31.053069  -0.38540078            0  -0.33723369   -88.841769 
     477     30.07804  -0.38388629            0  -0.33723158   -73.200949 
     478    28.402849  -0.38127677            0  -0.33722049   -48.495058 
     479    26.170416  -0.37779195            0  -0.33719845   -16.805369 
     480    23.633583  -0.37382457            0  -0.33716601    18.401845 
     481    21.142075  -0.36992233            0  -0.33712839    52.506616 
     482    19.086385  -0.36670066            0  -0.33709535    80.454885 
     483    17.803027  -0.36469205            0  -0.33707739    97.905567 
     484    17.475718  -0.36418737            0   -0.3370804    102.41235 
     485    18.079976  -0.36514682            0  -0.33710258    94.100635 
     486    19.398322  -0.36722503            0  -0.33713587    75.522791 
     487     21.09498  -0.36989108            0   -0.3371702    50.805093 
     488    22.813297  -0.37258345            0  -0.33719724    24.496164 
     489     24.25962  -0.37484192            0  -0.33721229   0.53586399 
     490    25.254086  -0.37638641            0  -0.33721425   -18.412175 
     491    25.745879  -0.37713976            0  -0.33720476   -31.212655 
     492    25.799942  -0.37720614            0  -0.33718729   -38.159496 
     493    25.564235  -0.37681956            0  -0.33716632   -40.626143 
     494    25.225721  -0.37627482            0  -0.33714665   -40.564643 
     495    24.963255  -0.37585349            0  -0.33713244   -39.955307 
     496    24.907089  -0.37576002            0  -0.33712609   -40.323795 
     497    25.115004  -0.37608403            0  -0.33712761   -42.442147 
     498    25.571019  -0.37679856            0   -0.3371348   -46.283139 
     499    26.204608  -0.37779092            0  -0.33714439   -51.208427 
     500    26.920867  -0.37891083            0  -0.33715329   -56.287956 
     501    27.629729   -0.3800166            0  -0.33715953   -60.620298 
     502    28.265835  -0.38100613            0  -0.33716238   -63.559462 
     503    28.796954   -0.3818296            0  -0.33716202   -64.819362 
     504    29.223641  -0.38248843            0    -0.337159    -64.47946 
     505    29.574175   -0.3830272            0  -0.33715405   -62.931458 
     506    29.897188  -0.38352224            0  -0.33714806   -60.792913 
     507    30.252118  -0.38406693            0  -0.33714221   -58.791983 
     508    30.697045  -0.38475271            0  -0.33713785   -57.622652 
     509    31.275445  -0.38564807            0  -0.33713604   -57.789937 
     510     32.00612  -0.38678236            0  -0.33713697   -59.492837 
     511    32.881078  -0.38814235            0  -0.33713979   -62.596016 
     512     33.87254  -0.38968358            0  -0.33714315   -66.702298 
     513    34.944713  -0.39134953            0  -0.33714603   -71.278761 
     514    36.062796  -0.39308624            0  -0.33714846   -75.756059 
     515     37.19352  -0.39484314            0  -0.33715147   -79.541624 
     516    38.297148  -0.39656001            0  -0.33715648   -81.948386 
     517    39.316485  -0.39814906            0   -0.3371644   -82.100081 
     518    40.170621  -0.39948451            0  -0.33717499   -78.896714 
     519     40.75937  -0.40040935            0   -0.3371866   -71.102014 
     520    40.980242  -0.40076182            0  -0.33719648   -57.567626 
     521     40.75553  -0.40041812            0  -0.33720133   -37.560692 
     522    40.063327  -0.39934143            0  -0.33719833   -11.120101 
     523    38.962391  -0.39762193            0  -0.33718652    20.673035 
     524    37.598023  -0.39548709            0  -0.33716798    55.651913 
     525     36.17932  -0.39326616            0  -0.33714763    90.852992 
     526    34.931407  -0.39131374            0  -0.33713087    123.09864 
     527    34.043657  -0.38992646            0   -0.3371206    149.64271 
     528     33.63942  -0.38929509            0  -0.33711625    168.58971 
     529    33.775368  -0.38950566            0  -0.33711595    178.97923 
     530    34.454669  -0.39056251            0  -0.33711912    180.68668 
     531    35.632585  -0.39239748            0    -0.337127    174.35949 
     532    37.209953  -0.39485784            0  -0.33714067    161.43921 
     533    39.028984  -0.39769773            0  -0.33715902     144.1276 
     534    40.887688  -0.40060029            0  -0.33717851    125.14142 
     535    42.574602  -0.40323316            0  -0.33719477    107.25618 
     536    43.910429  -0.40531494            0  -0.33720452    92.794114 
     537    44.780324   -0.4066661            0  -0.33720636    83.236445 
     538    45.148379  -0.40723131            0  -0.33720068    79.051304 
     539    45.054978  -0.40707478            0  -0.33718902    79.730184 
     540    44.601843  -0.40635657            0  -0.33717368      83.9797 
     541    43.929221  -0.40529697            0   -0.3371574    90.015847 
     542    43.188427  -0.40413361            0   -0.3371431    95.917836 
     543    42.512989  -0.40307627            0  -0.33713345    99.995879 
     544    41.992672  -0.40226611            0  -0.33713036    101.11628 
     545    41.655062  -0.40174671            0  -0.33713464    98.924974 
     546    41.458118   -0.4014525            0  -0.33714592    93.927901 
     547    41.294605  -0.40121576            0   -0.3371628    87.417974 
     548    41.007095  -0.40079008            0  -0.33718308    81.266001 
     549    40.411778  -0.39988737            0  -0.33720378    77.602635 
     550    39.330832   -0.3982277            0  -0.33722079    78.406903 
     551    37.635363  -0.39560556            0  -0.33722853    84.998051 
     552    35.300632  -0.39197578            0  -0.33722021    97.433065 
     553    32.467143  -0.38755081            0  -0.33719032    113.89207 
     554    29.481092  -0.38286895            0  -0.33714019    130.32759 
     555    26.863845  -0.37875306            0  -0.33708397    140.88382 
     556     25.16691  -0.37608357            0  -0.33704663    139.52073 
     557    24.743462  -0.37542874            0  -0.33704862    122.50657 
     558     25.57097  -0.37675249            0  -0.33708881    90.338295 
     559    27.261616  -0.37943147            0  -0.33714539    47.612057 
     560    29.252433  -0.38256798            0  -0.33719389   0.93802162 
     561    31.030651  -0.38535397            0  -0.33722165    -43.53135 
     562    32.265797  -0.38727677            0  -0.33722859   -81.586515 
     563    32.827765  -0.38814064            0  -0.33722078   -111.23868 
     564    32.739959  -0.38798857            0  -0.33720491   -132.29081 
     565    32.118199  -0.38700526            0  -0.33718603    -145.7177 
     566    31.120427  -0.38543895            0  -0.33716738   -153.11851 
     567    29.912224  -0.38354837            0  -0.33715087   -156.30906 
     568    28.645194  -0.38156975            0  -0.33713756   -157.04014 
     569    27.444394   -0.3796975            0   -0.3371279   -156.81434 
     570    26.402205   -0.3780749            0  -0.33712187   -156.78119 
     571    25.577184   -0.3767924            0  -0.33711908   -157.69735 
     572    24.996878  -0.37589206            0  -0.33711885   -159.94094 
     573    24.663623  -0.37537665            0  -0.33712037   -163.56735 
     574    24.562115   -0.3752216            0  -0.33712277   -168.39099 
     575    24.667271  -0.37538731            0  -0.33712537    -174.0745 
     576    24.950872  -0.37582956            0  -0.33712772   -180.20715 
     577    25.385889  -0.37650631            0  -0.33712971    -186.3589 
     578    25.948129  -0.37738014            0  -0.33713143   -192.10573 
     579    26.615673  -0.37841728            0  -0.33713313   -197.03067 
     580    27.367074  -0.37958472            0  -0.33713506   -200.71152 
     581    28.179426  -0.38084711            0  -0.33713739   -202.70703 
     582    29.026938  -0.38216457            0  -0.33714026   -202.54934 
     583    29.879943  -0.38349123            0  -0.33714381   -199.74255 
     584    30.703618  -0.38477339            0  -0.33714834   -193.76043 
     585    31.455605  -0.38594577            0   -0.3371543   -184.03573 
     586    32.082604  -0.38692614            0  -0.33716212   -169.94216 
     587    32.517426  -0.38761039            0   -0.3371719    -150.7853 
     588    32.679369  -0.38787276            0  -0.33718308   -125.83176 
     589    32.481025  -0.38757619            0  -0.33719417   -94.407888 
     590    31.843432  -0.38659585            0  -0.33720281   -56.084522 
     591    30.718921  -0.38485493            0  -0.33720614   -10.935916 
     592    29.117717  -0.38236669            0  -0.33720157    40.174736 
     593     27.13122  -0.37927146            0  -0.33718764    95.364021 
     594    24.942947  -0.37585454            0  -0.33716499    151.65083 
     595    22.818874  -0.37253164            0  -0.33713679    205.12153 
     596    21.072975  -0.36979532            0  -0.33710857    251.37845 
     597    20.010353  -0.36812574            0  -0.33708725     286.2362 
     598    19.858083  -0.36788168            0  -0.33707937    306.54375 
     599    20.702306   -0.3692003            0   -0.3370885    310.92097 
     600    22.456307  -0.37194527            0  -0.33711281    300.13463 
     601    24.879672  -0.37573643            0  -0.33714503    276.89286 
     602    27.647089  -0.38005962            0  -0.33717562    245.07474 
     603    30.438648  -0.38441104            0    -0.337197    208.70628 
     604     33.01319  -0.38841374            0  -0.33720627    171.10777 
     605    35.239566  -0.39186608            0  -0.33720522      134.493 
     606     37.08396  -0.39472029            0  -0.33719855    100.04813 
     607    38.569152  -0.39701684            0  -0.33719139     68.32524 
     608    39.728368  -0.39881074            0  -0.33718721    39.707842 
     609    40.573212  -0.40012089            0   -0.3371869    14.734053 
     610    41.084655  -0.40091654            0  -0.33718923   -5.8251158 
     611     41.22348  -0.40113482            0  -0.33719218   -21.097531 
     612    40.949259  -0.40071126            0  -0.33719397   -30.334172 
     613    40.238203  -0.39960773            0  -0.33719338    -33.11857 
     614    39.096483   -0.3978328            0   -0.3371894   -29.519518 
     615      37.5705  -0.39545748            0  -0.33718106   -20.196439 
     616    35.755064  -0.39262826            0   -0.3371678   -6.4644223 
     617    33.795581  -0.38957151            0  -0.33715045    9.7211277 
     618    31.875744  -0.38657532            0  -0.33713216    25.944229 
     619    30.184361  -0.38393761            0    -0.337118    39.731294 
     620    28.867155  -0.38188902            0  -0.33711254     49.10831 
     621    27.984734  -0.38052478            0  -0.33711705    53.081815 
     622    27.501252  -0.37978624            0  -0.33712845    51.779828 
     623    27.311667  -0.37950498            0  -0.33714126    46.169038 
     624    27.291369  -0.37948295            0  -0.33715072    37.524307 
     625    27.341131  -0.37956417            0  -0.33715474    26.941436 
     626    27.408885  -0.37966851            0    -0.337154    15.091798 
     627    27.486311  -0.37978534            0  -0.33715073    2.2425146 
     628    27.589901  -0.37994266            0  -0.33714737   -11.557427 
     629    27.739213   -0.3801724            0   -0.3371455   -26.258825 
     630    27.942031    -0.380487            0  -0.33714551    -41.66519 
     631    28.190326  -0.38087342            0  -0.33714679   -57.400003 
     632    28.465231   -0.3813014            0  -0.33714836   -72.970139 
     633    28.745856  -0.38173777            0  -0.33714944   -87.870173 
     634    29.016574  -0.38215804            0   -0.3371498   -101.66984 
     635    29.269606  -0.38255047            0  -0.33714975   -114.05014 
     636    29.502503  -0.38291192            0  -0.33714995   -124.78341 
     637    29.712343  -0.38323854            0  -0.33715108   -133.67685 
     638    29.889792  -0.38351613            0  -0.33715343   -140.51335 
     639    30.016596  -0.38371599            0  -0.33715659   -145.02739 
     640    30.069076  -0.38380027            0  -0.33715948   -146.94325 
     641    30.027688  -0.38373723            0  -0.33716063   -146.07518 
     642    29.889432  -0.38352102            0  -0.33715888   -142.45478 
     643    29.677681  -0.38318762            0  -0.33715392   -136.42752 
     644     29.44415  -0.38281809            0  -0.33714663   -128.66327 
     645    29.260485  -0.38252545            0  -0.33713887   -120.05572 
     646    29.201007  -0.38242726            0  -0.33713295   -111.52945 
     647    29.321922  -0.38261264            0  -0.33713076   -103.81228 
     648     29.64417  -0.38311489            0  -0.33713317   -97.249904 
     649    30.146264  -0.38390012            0  -0.33713959   -91.729881 
     650     30.77009  -0.38487636            0  -0.33714821   -86.745188 
     651    31.438089  -0.38592083            0  -0.33715653   -81.579384 
     652    32.076587   -0.3869168            0  -0.33716211   -75.555775 
     653    32.638493  -0.38778951            0  -0.33716323   -68.276945 
     654    33.119226  -0.38853128            0  -0.33715933   -59.787789 
     655    33.561332  -0.38920899            0  -0.33715128   -50.613968 
     656    34.045139  -0.38994965            0   -0.3371415   -41.649729 
     657    34.665406  -0.39090376            0  -0.33713349   -33.898529 
     658     35.49831  -0.39219306            0  -0.33713086   -28.117086 
     659    36.568741  -0.39385835            0  -0.33713578   -24.471781 
     660    37.831134  -0.39582857            0  -0.33714787   -22.348717 
     661    39.173913  -0.39792756            0  -0.33716406    -20.42278 
     662     40.44819  -0.39991973            0  -0.33717966   -16.988368 
     663    41.510957  -0.40157867            0  -0.33719012   -10.442416 
     664    42.267241   -0.4027542            0  -0.33719257   0.24964189 
     665     42.69603  -0.40341377            0  -0.33718703    15.268907 
     666    42.849107  -0.40364099            0  -0.33717681    33.953261 
     667    42.820102  -0.40358672            0  -0.33716753    55.128834 
     668    42.693845  -0.40338786            0  -0.33716451    77.652336 
     669    42.499434  -0.40309157            0  -0.33716977    100.91212 
     670     42.19302  -0.40262723            0  -0.33718072    125.00874 
     671    41.681133  -0.40184418            0  -0.33719167    150.50008 
     672    40.872119   -0.4005944            0  -0.33719676    177.84864 
     673    39.730181  -0.39881865            0  -0.33719231    206.84957 
     674    38.310218  -0.39660153            0  -0.33717772    236.27783 
     675    36.762906   -0.3941794            0  -0.33715566    263.87048 
     676    35.308096  -0.39189877            0  -0.33713161    286.66431 
     677    34.181015  -0.39013155            0  -0.33711264    301.63546 
     678     33.56534  -0.38916856            0  -0.33710463    306.48008 
     679    33.538287  -0.38913134            0  -0.33710937    300.25363 
     680    34.053462  -0.38994469            0  -0.33712362    283.57992 
     681    34.969202   -0.3913827            0  -0.33714121     258.3396 
     682    36.104304  -0.39315874            0  -0.33715657    227.03453 
     683     37.29071  -0.39500945            0  -0.33716702    192.16329 
     684    38.402126  -0.39673911            0  -0.33717274    155.84572 
     685    39.356824  -0.39822253            0  -0.33717531    119.72739 
     686    40.106319  -0.39938594            0  -0.33717615    85.049026 
     687    40.623551  -0.40018784            0  -0.33717577    52.739823 
     688     40.89823  -0.40061193            0  -0.33717379     23.45225 
     689    40.939184  -0.40067133            0  -0.33716967   -2.4646432 
     690    40.778081  -0.40041525            0  -0.33716348   -24.998979 
     691    40.467663  -0.39992662            0  -0.33715635   -44.448251 
     692    40.070669  -0.39930476            0  -0.33715027   -61.292197 
     693    39.641473  -0.39863599            0  -0.33714724   -75.989339 
     694    39.208037  -0.39796465            0  -0.33714821   -88.778469 
     695    38.763368  -0.39727917            0  -0.33715247   -99.583001 
     696    38.271703  -0.39652195            0  -0.33715788   -108.07386 
     697    37.687579  -0.39561978            0  -0.33716176   -113.86998 
     698    36.980056  -0.39452245            0  -0.33716188   -116.79243 
     699    36.152678  -0.39323455            0  -0.33715734   -117.06946 
     700    35.251591  -0.39182839            0  -0.33714888    -115.4096 
     701     34.35807  -0.39043236            0  -0.33713881   -112.90228 
     702    33.566781  -0.38919644            0  -0.33713027    -110.7612 
     703    32.956939  -0.38824616            0  -0.33712593   -109.99009 
     704    32.567824  -0.38764349            0  -0.33712684   -111.09833 
     705    32.389099  -0.38737146            0  -0.33713202   -113.98354 
     706    32.369165  -0.38734777            0  -0.33713926   -118.01947 
     707    32.435462  -0.38745762            0  -0.33714627   -122.28536 
     708     32.51578  -0.38758771            0  -0.33715177   -125.81799 
     709    32.551647  -0.38764722            0  -0.33715565   -127.78719 
     710    32.501074  -0.38757172            0   -0.3371586   -127.56097 
     711    32.333958  -0.38731529            0  -0.33716138   -124.69018 
     712     32.02651  -0.38684117            0  -0.33716415   -118.87623 
     713    31.560677   -0.3861206            0  -0.33716614   -109.98225 
     714    30.931258  -0.38514406            0  -0.33716591   -98.114296 
     715    30.158594  -0.38394167            0  -0.33716202   -83.748733 
     716    29.300222  -0.38260224            0  -0.33715403   -67.835429 
     717    28.453199  -0.38127744            0  -0.33714306   -51.789408 
     718    27.741748  -0.38016251            0  -0.33713168   -37.316474 
     719    27.292324  -0.37945645            0  -0.33712273   -26.098363 
     720     27.20578  -0.37931756            0  -0.33711808   -19.446713 
     721    27.537924  -0.37983279            0  -0.33711811   -18.054777 
     722    28.293205  -0.38100852            0  -0.33712232   -21.906544 
     723    29.427835   -0.3827762            0  -0.33713005   -30.309361 
     724     30.85651  -0.38500281            0  -0.33714061   -41.988076 
     725    32.461226  -0.38750425            0  -0.33715294   -55.220229 
     726    34.104008  -0.39006499            0  -0.33716552    -68.02405 
     727    35.643211  -0.39246388            0  -0.33717692   -78.387213 
     728     36.94911  -0.39449884            0  -0.33718627   -84.484449 
     729    37.914228  -0.39600295            0  -0.33719337   -84.832585 
     730    38.457568  -0.39685067            0   -0.3371983   -78.372622 
     731    38.525815  -0.39695915            0  -0.33720092   -64.509706 
     732    38.095832  -0.39629186            0  -0.33720058   -43.153995 
     733     37.18114  -0.39486862            0  -0.33719615   -14.787838 
     734    35.841619  -0.39278124            0  -0.33718653    19.451135 
     735    34.191348  -0.39020657            0  -0.33717163    57.724176 
     736    32.396003  -0.38740353            0  -0.33715338    97.570038 
     737    30.651277  -0.38467993            0  -0.33713607    136.19103 
     738    29.140756  -0.38232604            0  -0.33712518    170.95457 
     739    27.984634  -0.38053249            0  -0.33712491    199.98091 
     740    27.201592  -0.37932881            0  -0.33713583    222.57342 
     741    26.704389  -0.37857606            0  -0.33715431    239.26933 
     742    26.333876  -0.37802113            0  -0.33717408    251.46283 
     743      25.9177  -0.37739021            0   -0.3371887    260.75435 
     744    25.331721    -0.376486            0  -0.33719342    268.27022 
     745    24.545354  -0.37525911            0  -0.33718628    274.16412 
     746    23.638914  -0.37383566            0  -0.33716882    277.43433 
     747      22.7866  -0.37249098            0  -0.33714619    276.12671 
     748    22.205105  -0.37156895            0  -0.33712613    267.91686 
     749    22.079661  -0.37136446            0  -0.33711622    250.93548 
     750    22.493871  -0.37201102            0  -0.33712029    224.54403 
     751    23.395332  -0.37342523            0  -0.33713622    189.71016 
     752    24.614853  -0.37533787            0  -0.33715724    148.78847 
     753    25.928414  -0.37739378            0  -0.33717565     104.8251 
     754    27.128958  -0.37926678            0  -0.33718647    60.745204 
     755    28.075703  -0.38073757            0  -0.33718874    18.776335 
     756    28.707468  -0.38171342            0  -0.33718464   -19.740173 
     757    29.026527  -0.38220125            0  -0.33717757   -54.213195 
     758    29.069365  -0.38226062            0  -0.33717049   -84.511857 
     759    28.879714  -0.38196101            0  -0.33716506   -110.68572 
     760    28.492561  -0.38135696            0  -0.33716153   -132.79185 
     761    27.930787  -0.38048318            0  -0.33715913   -150.85087 
     762    27.211349  -0.37936472            0   -0.3371566   -164.90276 
     763     26.35626  -0.37803444            0  -0.33715267   -175.11297 
     764    25.403758  -0.37655075            0  -0.33714642   -181.87893 
     765    24.415639  -0.37500936            0  -0.33713773   -185.89343 
     766    23.477149  -0.37354343            0  -0.33712751    -188.1259 
     767    22.686889  -0.37230789            0  -0.33711777   -189.69613 
     768    22.137182  -0.37144849            0  -0.33711102   -191.64725 
     769    21.890262  -0.37106378            0  -0.33710932   -194.67735 
     770    21.959581  -0.37117519            0  -0.33711321   -198.93092 
     771    22.304794  -0.37171897            0  -0.33712152   -203.94297 
     772    22.842591  -0.37256364            0    -0.337132   -208.76019 
     773    23.467829   -0.3735438            0  -0.33714234   -212.17985 
     774    24.075853  -0.37449551            0  -0.33715093   -213.00842 
     775    24.579218  -0.37528231            0  -0.33715695   -210.26502 
     776     24.91717  -0.37580965            0  -0.33716009   -203.30805 
     777    25.060088   -0.3760314            0  -0.33716015   -191.90367 
     778    25.011795   -0.3759533            0  -0.33715696   -176.26271 
     779     24.81079   -0.3756351            0  -0.33715055   -157.05435 
     780    24.528786  -0.37518863            0   -0.3371415   -135.37891 
     781    24.263403  -0.37476679            0   -0.3371313   -112.66691 
     782    24.122798  -0.37453956            0  -0.33712216   -90.483686 
     783    24.203746   -0.3746594            0  -0.33711644   -70.258934 
     784    24.569134  -0.37522543            0  -0.33711572   -53.009904 
     785    25.232764  -0.37625929            0  -0.33712021    -39.14828 
     786    26.156676  -0.37770107            0  -0.33712888   -28.432686 
     787     27.26059   -0.3794245            0     -0.33714   -20.067075 
     788     28.43842  -0.38126329            0  -0.33715184   -12.892727 
     789    29.575851  -0.38303875            0    -0.337163   -5.6076063 
     790    30.565153  -0.38458278            0  -0.33717251    3.0334046 
     791    31.316308  -0.38575506            0  -0.33717965    14.054794 
     792    31.765302  -0.38645572            0  -0.33718387    28.132074 
     793    31.880426  -0.38663521            0  -0.33718478    45.495803 
     794    31.666301  -0.38630066            0  -0.33718237    65.874972 
     795    31.164187  -0.38551655            0  -0.33717711    88.496601 
     796    30.447643  -0.38439779            0  -0.33716979    112.15224 
     797    29.615527  -0.38309815            0  -0.33716086    135.31073 
     798    28.788015  -0.38180338            0  -0.33714966    156.21689 
     799    28.110386  -0.38073752            0  -0.33713489    172.92115 
     800    27.758841  -0.38017434            0  -0.33711699    183.28866 
     801    27.927195  -0.38041963            0  -0.33710115    185.19473 
     802     28.77263  -0.38172662            0  -0.33709677    177.12583 
     803    30.330349  -0.38415736            0  -0.33711129    159.08233 
     804    32.451026   -0.3874787            0  -0.33714321    133.21176 
     805    34.817164  -0.39118782            0  -0.33718216    103.57503 
     806    37.036803  -0.39466484            0  -0.33721625    75.068385 
     807    38.754975  -0.39735242            0  -0.33723873    52.148174 
     808    39.724714  -0.39886672            0  -0.33724885    37.984479 
     809    39.824687  -0.39902171            0  -0.33724877    34.188271 
     810    39.046351  -0.39780608            0  -0.33724043    40.884644 
     811    37.478238  -0.39535747            0  -0.33722416     56.85801 
     812    35.300564  -0.39195469            0  -0.33719922    79.640065 
     813    32.786245  -0.38802108            0  -0.33716562    105.58119 
     814    30.292194  -0.38411334            0  -0.33712646    130.06506 
     815    28.220934  -0.38086347            0  -0.33708937    148.05684 
     816    26.942425  -0.37885615            0  -0.33706517    155.06597 
     817    26.691702    -0.378465            0  -0.33706292     148.3322 
     818    27.487394  -0.37972031            0  -0.33708402    127.73709 
     819    29.120807  -0.38229041            0  -0.33712049    95.903555 
     820    31.228681  -0.38559902            0  -0.33715953    57.351067 
     821    33.411121  -0.38901505            0  -0.33719034    17.139159 
     822    35.335579  -0.39201771            0  -0.33720793   -20.347727 
     823    36.790644  -0.39427944            0  -0.33721268   -52.071783 
     824     37.68984  -0.39566932            0  -0.33720779   -76.460655 
     825    38.045939  -0.39621099            0  -0.33719711   -93.182743 
     826    37.936213  -0.39602763            0  -0.33718395   -102.79349 
     827    37.470139  -0.39529165            0   -0.3371709   -106.38025 
     828    36.763372  -0.39418429            0  -0.33715983   -105.25609 
     829    35.918518  -0.39286587            0  -0.33715188   -100.71851 
     830    35.013171  -0.39145701            0  -0.33714732   -93.885098 
     831    34.096243  -0.39003295            0  -0.33714553    -85.62153 
     832     33.19304  -0.38863153            0  -0.33714508   -76.567736 
     833    32.317457  -0.38727255            0  -0.33714424    -67.24409 
     834    31.487165  -0.38598196            0  -0.33714153      -58.192 
     835    30.736274    -0.384812            0   -0.3371363   -50.088413 
     836    30.120438  -0.38384949            0  -0.33712902   -43.779733 
     837    29.711595  -0.38320755            0  -0.33712125   -40.205798 
     838     29.58288  -0.38300185            0   -0.3371152   -40.221723 
     839    29.787881  -0.38331762            0  -0.33711298   -44.364861 
     840    30.341087  -0.38417858            0  -0.33711586   -52.643087 
     841    31.206835  -0.38552924            0  -0.33712364   -64.424486 
     842    32.301436  -0.38723826            0   -0.3371348   -78.478905 
     843    33.508117  -0.38912215            0  -0.33714699   -93.166337 
     844    34.699451  -0.39098098            0  -0.33715791   -106.71198 
     845    35.759659  -0.39263358            0    -0.337166   -117.48257 
     846    36.600655  -0.39394267            0   -0.3371706   -124.19397 
     847    37.169405  -0.39482614            0  -0.33717187   -126.01992 
     848    37.447727  -0.39525638            0  -0.33717039   -122.61094 
     849    37.447451  -0.39525242            0  -0.33716687   -114.05274 
     850    37.203939  -0.39486975            0  -0.33716191   -100.79596 
     851    36.770021  -0.39419074            0  -0.33715596   -83.580194 
     852    36.211169  -0.39331726            0  -0.33714933   -63.363173 
     853    35.601544  -0.39236468            0  -0.33714235   -41.253588 
     854    35.019575  -0.39145521            0  -0.33713559    -18.43621 
     855    34.541448  -0.39070794            0  -0.33712995    3.9253506 
     856    34.231584  -0.39022397            0  -0.33712662    24.814834 
     857    34.131092  -0.39006821            0  -0.33712673    43.505703 
     858    34.247156  -0.39025249            0  -0.33713098     59.68575 
     859    34.547099  -0.39072608            0  -0.33713933    73.522216 
     860    34.959555  -0.39137755            0  -0.33715103    85.639954 
     861    35.382629  -0.39204767            0   -0.3371649    97.013662 
     862     35.69686  -0.39254973            0  -0.33717955    108.79816 
     863    35.780856  -0.39269383            0  -0.33719336    122.12339 
     864    35.529212   -0.3923144            0  -0.33720427    137.86482 
     865    34.874489  -0.39130394            0  -0.33720936     156.3814 
     866     33.81528  -0.38965658            0  -0.33720497    177.21253 
     867    32.448176  -0.38751888            0  -0.33718781    198.76796 
     868    30.990809  -0.38522844            0  -0.33715792    218.14721 
     869    29.770181  -0.38329914            0  -0.33712197    231.34962 
     870    29.151281  -0.38231027            0  -0.33709309    234.12277 
     871    29.413967  -0.38270894            0   -0.3370843    223.34997 
     872    30.637581  -0.38462209            0  -0.33709947    198.32916 
     873    32.666939  -0.38780139            0  -0.33713099    161.14128 
     874    35.179023  -0.39173305            0  -0.33716611    115.90082 
     875     37.79946  -0.39582627            0  -0.33719471    67.446226 
     876    40.202147  -0.39957069            0  -0.33721227    20.193041 
     877    42.160589  -0.40261497            0  -0.33721877   -22.506698 
     878    43.556138  -0.40477732            0  -0.33721645   -58.538823 
     879    44.361764  -0.40601861            0  -0.33720811   -86.917131 
     880    44.617722  -0.40640367            0  -0.33719615   -107.55556 
     881    44.408886  -0.40606584            0  -0.33718225   -121.02864 
     882    43.847452  -0.40518029            0  -0.33716755   -128.36658 
     883    43.060022  -0.40394442            0  -0.33715308   -130.88312 
     884    42.175533  -0.40255958            0  -0.33714019   -130.00692 
     885    41.310688  -0.40120853            0  -0.33713063   -127.08821 
     886    40.552621   -0.4000281            0  -0.33712605   -123.18309 
     887    39.943055   -0.3990838            0  -0.33712726   -118.86422 
     888    39.471067  -0.39835795            0  -0.33713352   -114.13449 
     889    39.079822  -0.39776019            0  -0.33714262   -108.49987 
     890    38.686594  -0.39715931            0  -0.33715169   -101.19195 
     891    38.209023   -0.3964251            0  -0.33715825   -91.461321 
     892    37.588055  -0.39546465            0    -0.337161    -78.83666 
     893    36.800561  -0.39424209            0  -0.33715994   -63.271248 
     894    35.859849  -0.39277904            0  -0.33715605   -45.155016 
     895    34.807216  -0.39114084            0  -0.33715061   -25.223148 
     896         33.7  -0.38941753            0  -0.33714473   -4.4188415 
     897    32.600664  -0.38770681            0  -0.33713921     16.24001 
     898    31.568433  -0.38610116            0  -0.33713468    35.771174 
     899    30.652596  -0.38467762            0  -0.33713171    53.321428 
     900    29.886975  -0.38348894            0   -0.3371306    68.245255 
     901    29.287287   -0.3825592            0  -0.33713105    80.148382 
     902     28.85391  -0.38188807            0  -0.33713215    88.868513 
     903    28.579983  -0.38146383            0   -0.3371328    94.393954 
     904    28.460818  -0.38127865            0  -0.33713245    96.764047 
     905    28.498703  -0.38133647            0  -0.33713151    96.014679 
     906    28.699251  -0.38164731            0  -0.33713127    92.210197 
     907    29.059907  -0.38220886            0  -0.33713341    85.554681 
     908    29.555547  -0.38298341            0  -0.33713915    76.529904 
     909    30.127886   -0.3838808            0  -0.33714878    65.987785 
     910    30.684154  -0.38475619            0  -0.33716133    55.139107 
     911    31.107133  -0.38542573            0  -0.33717478    45.417191 
     912    31.275288  -0.38569818            0   -0.3371864    38.233023 
     913    31.089936  -0.38541729            0  -0.33719301     34.66052 
     914    30.505613  -0.38450947            0  -0.33719155    35.100428 
     915    29.558162  -0.38302826            0  -0.33717996    38.989029 
     916    28.380933  -0.38118098            0  -0.33715869     44.65694 
     917    27.195374  -0.37931555            0  -0.33713222    49.480643 
     918    26.264956  -0.37784886            0  -0.33710872    50.434765 
     919    25.817289   -0.3771428            0  -0.33709704    44.980902 
     920    25.963393  -0.37737433            0  -0.33710195    31.971313 
     921    26.655181   -0.3784667            0  -0.33712127    12.117826 
     922    27.704894  -0.38012119            0  -0.33714753   -12.232742 
     923    28.853221  -0.38192728            0  -0.33717243   -37.870521 
     924    29.847421  -0.38348765            0  -0.33719066    -61.61837 
     925    30.495539  -0.38450303            0  -0.33720074   -80.978125 
     926    30.686755  -0.38480239            0   -0.3372035   -94.409126 
     927    30.388807  -0.38433683            0  -0.33720009   -101.34308 
     928    29.639878  -0.38316575            0  -0.33719069    -102.1108 
     929    28.545833  -0.38145284            0  -0.33717478   -97.893765 
     930    27.279849  -0.37946745            0  -0.33715308     -90.6768 
     931    26.068009  -0.37756459            0  -0.33712993   -83.041909 
     932    25.143056   -0.3761132            0  -0.33711326   -77.629188 
     933    24.670157   -0.3753768            0  -0.33711038    -76.31219 
     934    24.682628  -0.37540787            0  -0.33712211   -79.493644 
     935    25.075375  -0.37603632            0  -0.33714136    -86.03278 
     936    25.666673  -0.37697031            0  -0.33715818   -93.915906 
     937    26.287292  -0.37794088            0  -0.33716609   -101.22622 
     938    26.842485  -0.37880055            0  -0.33716459   -106.82753 
     939    27.322744  -0.37953814            0  -0.33715723   -110.50392 
     940    27.776176  -0.38023266            0  -0.33714843   -112.68657 
     941    28.269851  -0.38099121            0  -0.33714123    -114.0511 
     942    28.860658  -0.38190323            0  -0.33713684   -115.20078 
     943    29.582192  -0.38302069            0  -0.33713511    -116.5095 
     944    30.444143  -0.38435795            0  -0.33713538   -118.09441 
     945    31.437606  -0.38590048            0  -0.33713693    -119.8551 
     946    32.541449  -0.38761497            0  -0.33713922   -121.53147 
     947    33.727634  -0.38945753            0  -0.33714186   -122.75845 
     948    34.965093  -0.39137975            0  -0.33714463    -123.1122 
     949    36.222134  -0.39333241            0  -0.33714747   -122.14571 
     950    37.467284  -0.39526681            0  -0.33715049   -119.41106 
     951    38.668584  -0.39713361            0  -0.33715393   -114.46787 
     952    39.792007  -0.39888023            0  -0.33715798   -106.88377 
     953    40.800377  -0.40044894            0  -0.33716259   -96.241204 
     954    41.654596  -0.40177863            0  -0.33716728   -82.168253 
     955    42.318406  -0.40281222            0  -0.33717122   -64.404556 
     956    42.766406  -0.40350928            0  -0.33717338   -42.896765 
     957    42.993034  -0.40386045            0  -0.33717302   -17.896217 
     958    43.018679  -0.40389734            0  -0.33717013    9.9845495 
     959    42.888813  -0.40369149            0  -0.33716572    39.800656 
     960    42.663694  -0.40333835            0  -0.33716177    70.413436 
     961    42.399455  -0.40292741            0   -0.3371607    100.72502 
     962    42.125264  -0.40250603            0  -0.33716462     129.9515 
     963    41.824143  -0.40204875            0  -0.33717441    157.84593 
     964    41.425621  -0.40144529            0  -0.33718911    184.77832 
     965    40.816183  -0.40051656            0  -0.33720569    211.60881 
     966    39.868717  -0.39906084            0  -0.33721961    239.34667 
     967    38.485644  -0.39692196            0  -0.33722604    268.66302 
     968    36.643782  -0.39406053            0  -0.33722157    299.39624 
     969    34.425569  -0.39060377            0  -0.33720552    330.22481 
     970    32.024548   -0.3868541            0  -0.33718013     358.6419 
     971     29.72354  -0.38325422            0  -0.33714939    381.24772 
     972    27.853623  -0.38032264            0  -0.33711828    394.25983 
     973     26.73912  -0.37856941            0  -0.33709378    394.15958 
     974    26.622431  -0.37838023            0   -0.3370856    378.51776 
     975    27.572346  -0.37986928            0  -0.33710122    346.96333 
     976    29.421699  -0.38277431            0  -0.33713768    301.82214 
     977    31.798847  -0.38650443            0  -0.33718054    247.74175 
     978    34.256809  -0.39035027            0  -0.33721379     190.2646 
     979    36.420023  -0.39372179            0   -0.3372299    134.21521 
     980    38.062711  -0.39627113            0  -0.33723123    82.818148 
     981    39.100535   -0.3978744            0  -0.33722471    37.733588 
     982    39.535486  -0.39854083            0  -0.33721648   -0.4087341 
     983    39.401578  -0.39832613            0  -0.33720948   -31.469177 
     984    38.736273  -0.39728824            0  -0.33720357   -55.510338 
     985     37.57942    -0.395487            0  -0.33719674   -72.784106 
     986    35.989539  -0.39301071            0  -0.33718655   -83.891035 
     987    34.064622  -0.39000964            0  -0.33717127   -89.977579 
     988    31.955745  -0.38671814            0  -0.33715089   -92.846591 
     989    29.863728  -0.38345015            0  -0.33712787   -94.878117 
     990    28.012731  -0.38055816            0  -0.33710701   -98.699184 
     991      26.6029  -0.37835832            0  -0.33709398   -106.63114 
     992    25.756768  -0.37704452            0  -0.33709264   -120.07793 
     993    25.483636  -0.37663092            0   -0.3371027      -139.12 
     994    25.681889  -0.37695542            0  -0.33711968   -162.53152 
     995    26.179618  -0.37774503            0  -0.33713726   -188.22659 
     996    26.792995  -0.37870951            0  -0.33715031   -213.91141 
     997    27.375754  -0.37961967            0  -0.33715655   -237.65189 
     998    27.844063  -0.38034583            0   -0.3371563   -258.18085 
     999    28.176736  -0.38085696            0  -0.33715141   -274.93632 
    1000     28.40012  -0.38119617            0  -0.33714412   -287.92358 
    1001    28.567848  -0.38144858            0  -0.33713637   -297.50714 
    1002    28.742212  -0.38171223            0  -0.33712956   -304.20658 
    1003    28.980146  -0.38207626            0  -0.33712453   -308.53312 
    1004    29.324455  -0.38260742            0  -0.33712162   -310.87905 
    1005    29.799774  -0.38334388            0   -0.3371208   -311.45909 
    1006    30.412315  -0.38429499            0  -0.33712179   -310.29613 
    1007    31.152219  -0.38544504            0  -0.33712415   -307.24032 
    1008    31.997364  -0.38675926            0  -0.33712745   -302.00883 
    1009    32.917587  -0.38819048            0   -0.3371313   -294.23459 
    1010    33.878512  -0.38968509            0   -0.3371354    -283.5143 
    1011    34.844433  -0.39118759            0  -0.33713963   -269.44819 
    1012    35.779775  -0.39264285            0  -0.33714406    -251.6661 
    1013     36.64877  -0.39399569            0  -0.33714899   -229.83508 
    1014    37.413173  -0.39518727            0  -0.33715488   -203.64717 
    1015    38.028467  -0.39614904            0  -0.33716226   -172.79286 
    1016    38.440331  -0.39679692            0  -0.33717128    -136.9388 
    1017    38.584738  -0.39703089            0  -0.33718126   -95.744806 
    1018    38.396232  -0.39674745            0  -0.33719022   -48.965171 
    1019    37.827762  -0.39587037            0  -0.33719491     3.334844 
    1020    36.880196  -0.39439768            0  -0.33719201    60.471087 
    1021    35.630155  -0.39244702            0  -0.33718031    120.86207 
    1022    34.235977  -0.39026711            0  -0.33716294    181.99041 
    1023    32.904593  -0.38818605            0  -0.33714702    240.78427 
    1024     31.82542  -0.38650454            0  -0.33713944    294.35598 
    1025    31.108323  -0.38539464            0  -0.33714184     340.7047 
    1026    30.766431   -0.3848729            0  -0.33715042    378.94016 
    1027    30.745639  -0.38485135            0  -0.33716112    408.99541 
    1028    30.960074  -0.38519685            0  -0.33717401     431.2555 
    1029    31.300017  -0.38574092            0  -0.33719078    446.46273 
    1030    31.630884  -0.38627124            0  -0.33720789    455.71607 
    1031    31.834277   -0.3865928            0  -0.33721396    460.04181 
    1032    31.904489  -0.38668541            0  -0.33719767    459.40072 
    1033    32.029505  -0.38684358            0  -0.33716192    451.86516 
    1034    32.544051  -0.38760895            0  -0.33712916    434.13622 
    1035     33.72707  -0.38943982            0  -0.33712503    403.70024 
    1036     35.58676  -0.39235264            0  -0.33715324    361.10917 
    1037    37.830148  -0.39587197            0   -0.3371928    310.26035 
    1038    40.039754  -0.39932667            0  -0.33722014    256.44448 
    1039    41.886252  -0.40219739            0  -0.33722672    204.02846 
    1040    43.224161  -0.40426359            0  -0.33721765    155.39682 
    1041    44.064098  -0.40555074            0  -0.33720196    111.19748 
    1042    44.497154  -0.40620678            0  -0.33718628     71.10312 
[...]
    9751    26.188434  -0.37774149            0  -0.33712004     9.472242 
    9752    25.083446  -0.37600762            0  -0.33710014    30.562997 
    9753    24.592251  -0.37523927            0  -0.33709369    44.034982 
    9754    24.776924  -0.37553485            0  -0.33710283    49.088843 
    9755    25.550157  -0.37675476            0  -0.33712335    46.671531 
    9756    26.713047  -0.37858266            0  -0.33714748    39.049324 
    9757    28.026968  -0.38064109            0  -0.33716785    28.997893 
    9758    29.284117   -0.3826033            0  -0.33718007    18.997046 
    9759    30.352628  -0.38426366            0  -0.33718304    10.697216 
    9760    31.190556  -0.38555853            0  -0.33717818    4.7286666 
    9761    31.833898  -0.38654693            0  -0.33716868   0.80755875 
    9762    32.366826  -0.38736336            0  -0.33715847   -1.9444478 
    9763    32.883858  -0.38815794            0  -0.33715108   -4.5732484 
    9764    33.455793  -0.38904238            0  -0.33714838   -7.8920364 
    9765     34.11034  -0.39005947            0  -0.33715018   -12.235216 
    9766    34.831833  -0.39118321            0   -0.3371548   -17.423501 
    9767    35.575578  -0.39234213            0  -0.33716008   -22.899669 
    9768    36.287676  -0.39345087            0  -0.33716427   -27.939251 
    9769    36.922525  -0.39443764            0  -0.33716631   -31.850884 
    9770    37.454193  -0.39526187            0  -0.33716586   -34.120434 
    9771    37.880749   -0.3959209            0  -0.33716324    -34.48233 
    9772     38.22206  -0.39644631            0  -0.33715924   -32.917724 
    9773    38.512737  -0.39689278            0  -0.33715484   -29.594341 
    9774    38.792617  -0.39732312            0  -0.33715105   -24.773363 
    9775    39.096275  -0.39779208            0    -0.337149   -18.702113 
    9776    39.441517  -0.39832853            0  -0.33714993   -11.495713 
    9777    39.817315  -0.39891637            0  -0.33715487   -3.0154983 
    9778    40.174855  -0.39947997            0  -0.33716388    7.2147459 
    9779    40.427919  -0.39988423            0  -0.33717561    19.988637 
    9780    40.466415  -0.39995586            0  -0.33718753    36.254108 
    9781    40.180497  -0.39952168            0  -0.33719684    56.838062 
    9782    39.487615  -0.39845138            0  -0.33720129    82.144932 
    9783    38.354711  -0.39669239            0  -0.33719957     111.9171 
    9784     36.81125  -0.39429009            0  -0.33719136    145.10775 
    9785    34.952322  -0.39139249            0  -0.33717718    179.87851 
    9786    32.932405  -0.38824057            0   -0.3371584    213.71635 
    9787    30.950303  -0.38514491            0  -0.33713723    243.66121 
    9788    29.225374  -0.38244881            0   -0.3371167    266.63524 
    9789    27.965711  -0.38047873            0  -0.33710051    279.85549 
    9790    27.331293  -0.37948643            0  -0.33709227    281.28713 
    9791    27.399434  -0.37959411            0  -0.33709425    270.05027 
    9792     28.14393  -0.38076089            0  -0.33710622    246.65416 
    9793    29.438271  -0.38278747            0  -0.33712513    212.94648 
    9794    31.084428  -0.38536204            0  -0.33714631     171.7635 
    9795    32.856835  -0.38813031            0  -0.33716536    126.39783 
    9796     34.54509  -0.39076316            0  -0.33717952      80.0677 
    9797    35.982757  -0.39300155            0  -0.33718792     35.53194 
    9798    37.058842  -0.39467383            0  -0.33719106   -5.1040917 
    9799    37.716019  -0.39569219            0  -0.33719005   -40.427439 
    9800    37.942129  -0.39603892            0  -0.33718606   -69.666351 
    9801    37.760014  -0.39575045            0  -0.33718007   -92.602333 
    9802    37.218081  -0.39490271            0  -0.33717294   -109.47294 
    9803    36.381799  -0.39359804            0  -0.33716544   -120.87136 
    9804    35.325511  -0.39195252            0  -0.33715836   -127.63972 
    9805    34.124381   -0.3900834            0  -0.33715233   -130.75724 
    9806    32.847609  -0.38809826            0  -0.33714761   -131.23642 
    9807    31.555137  -0.38608971            0  -0.33714385   -130.05211 
    9808    30.299864  -0.38413881            0  -0.33714003   -128.12469 
    9809    29.134971  -0.38232691            0  -0.33713502   -126.35496 
    9810    28.122109  -0.38074916            0  -0.33712834   -125.66897 
    9811    27.333274  -0.37951821            0  -0.33712097   -127.00175 
    9812    26.840313  -0.37874792            0  -0.33711533   -131.16197 
    9813    26.692922   -0.3785181            0  -0.33711413     -138.591 
    9814    26.895382  -0.37883666            0  -0.33711865   -149.12616 
    9815    27.396481  -0.37962305            0  -0.33712777   -161.91984 
    9816     28.10052  -0.38072593            0   -0.3371386   -175.59295 
    9817    28.893964  -0.38196623            0  -0.33714817   -188.55837 
    9818    29.673311  -0.38318178            0  -0.33715486   -199.35488 
    9819    30.361662  -0.38425331            0  -0.33715868   -206.85554 
    9820     30.91078  -0.38510698            0   -0.3371606   -210.31488 
    9821    31.293961  -0.38570236            0  -0.33716162   -209.31026 
    9822    31.497998   -0.3860193            0  -0.33716207   -203.66488 
    9823    31.520407  -0.38605344            0  -0.33716145   -193.41805 
    9824    31.373555  -0.38582297            0  -0.33715876   -178.86109 
    9825    31.092971   -0.3853821            0  -0.33715312   -160.61121 
    9826    30.744413  -0.38483269            0  -0.33714436   -139.66654 
    9827    30.423866  -0.38432461            0  -0.33713349   -117.38149 
    9828    30.246964  -0.38403932            0   -0.3371226   -95.326184 
    9829     30.32869  -0.38415774            0  -0.33711425   -75.040158 
    9830    30.758709  -0.38482122            0  -0.33711072   -57.739834 
    9831    31.579525  -0.38609709            0   -0.3371134   -44.060061 
    9832    32.772511  -0.38795699            0  -0.33712284   -33.889358 
    9833    34.252775  -0.39026914            0  -0.33713892   -26.315547 
    9834    35.871369  -0.39280184            0  -0.33716098   -19.672093 
    9835    37.424388  -0.39523733            0  -0.33718754   -11.682798 
    9836    38.671425  -0.39719982            0  -0.33721573   0.27266251 
    9837    39.368301   -0.3983056            0  -0.33724058    18.733155 
    9838    39.319312  -0.39824364            0   -0.3372546    45.536948 
    9839    38.450111  -0.39688958            0  -0.33724877    81.023168 
    9840    36.887819   -0.3944341            0   -0.3372166    123.21078 
    9841    35.006441  -0.39146117            0  -0.33716192    167.38905 
    9842    33.371271  -0.38886742            0  -0.33710452    206.79524 
    9843    32.547473  -0.38755751            0  -0.33707242    234.73813 
    9844    32.851299  -0.38803729            0  -0.33708093    247.33744 
    9845    34.217042  -0.39019464            0  -0.33711984    245.01073 
    9846    36.279906  -0.39343927            0  -0.33716472    231.61112 
    9847    38.588784  -0.39705291            0  -0.33719701    212.14601 
    9848    40.784462  -0.40047348            0  -0.33721181    190.84054 
    9849    42.663971  -0.40339029            0  -0.33721328    170.37844 
    9850     44.15727  -0.40570126            0  -0.33720796    152.05441 
    9851    45.272501   -0.4074244            0  -0.33720124    136.27555 
    9852    46.046151  -0.40861941            0  -0.33719622    123.04805 
    9853    46.511905  -0.40933929            0  -0.33719366    112.30017 
    9854    46.690751  -0.40961537            0  -0.33719233    104.00165 
    9855    46.599037  -0.40947073            0  -0.33718995    98.101932 
    9856    46.265876  -0.40894861            0   -0.3371846    94.370505 
    9857    45.747699  -0.40813615            0   -0.3371759    92.264378 
    9858    45.129302   -0.4071665            0  -0.33716545    90.932202 
    9859     44.50804  -0.40619355            0  -0.33715616    89.388636 
    9860    43.966797  -0.40534884            0  -0.33715099    86.797674 
    9861    43.546899  -0.40469828            0  -0.33715173    82.747621 
    9862    43.232257   -0.4042167            0  -0.33715821    77.402478 
    9863    42.952504  -0.40379255            0  -0.33716798    71.453919 
    9864     42.60672  -0.40326529            0  -0.33717708    65.862405 
    9865     42.10069  -0.40248487            0  -0.33718158    61.465506 
    9866    41.383214  -0.40136969            0  -0.33717928    58.608696 
    9867    40.466507    -0.399939            0  -0.33717053    56.956059 
    9868    39.423288  -0.39830813            0  -0.33715781    55.555498 
    9869    38.363253  -0.39665085            0  -0.33714478    53.123643 
    9870    37.398693  -0.39514486            0  -0.33713493    48.440361 
    9871    36.611172  -0.39391898            0  -0.33713059    40.720175 
    9872    36.029464  -0.39301838            0   -0.3371323     29.84834 
    9873    35.624354  -0.39239658            0  -0.33713887    16.420775 
    9874    35.319773  -0.39193332            0  -0.33714805    1.5959459 
    9875    35.014237  -0.39146881            0  -0.33715747   -13.172273 
    9876    34.604375  -0.39084084            0  -0.33716524   -26.427307 
    9877     34.00434  -0.38991504            0  -0.33717017   -36.956003 
    9878     33.15929  -0.38860552            0  -0.33717142   -43.963252 
    9879    32.054816  -0.38688916            0  -0.33716824    -47.19003 
    9880    30.724695  -0.38481766            0  -0.33715992     -46.9968 
    9881    29.256169  -0.38252632            0  -0.33714644   -44.403507 
    9882    27.787032  -0.38023055            0  -0.33712948   -41.028704 
    9883    26.486375  -0.37819649            0   -0.3371129   -38.847846 
    9884    25.516138  -0.37668038            0  -0.33710174   -39.746558 
    9885    24.983762  -0.37585259            0  -0.33709973   -44.983454 
    9886    24.908239  -0.37574263            0  -0.33710692   -54.803589 
    9887    25.219203   -0.3762377            0  -0.33711964   -68.415571 
    9888    25.789732  -0.37713574            0  -0.33713273     -84.3411 
    9889    26.483602  -0.37822154            0  -0.33714225   -100.93099 
    9890    27.193363  -0.37932698            0  -0.33714676   -116.79331 
    9891    27.856694  -0.38035609            0  -0.33714697   -130.99618 
    9892    28.452725  -0.38127826            0  -0.33714462   -143.05676 
    9893    28.987484  -0.38210461            0   -0.3371415   -152.80837 
    9894    29.477743  -0.38286245            0  -0.33713889   -160.24125 
    9895    29.938958  -0.38357633            0  -0.33713736   -165.37847 
    9896    30.379277  -0.38425888            0  -0.33713693   -168.21087 
    9897    30.799027  -0.38491023            0  -0.33713719    -168.6879 
    9898    31.193938   -0.3855232            0   -0.3371376   -166.74751 
    9899    31.560113  -0.38609117            0   -0.3371376   -162.36499 
    9900    31.899116  -0.38661615            0  -0.33713674   -155.60259 
    9901    32.221824  -0.38711481            0  -0.33713484   -146.64508 
    9902    32.549892  -0.38762092            0  -0.33713208   -135.80843 
    9903    32.913739  -0.38818229            0  -0.33712907   -123.51036 
    9904     33.34629  -0.38885106            0   -0.3371269   -110.19598 
    9905    33.872756  -0.38966767            0   -0.3371269   -96.223461 
    9906    34.498337  -0.39064141            0  -0.33713029   -81.732153 
    9907    35.197374  -0.39173313            0  -0.33713772   -66.532221 
    9908    35.907846  -0.39284645            0    -0.337149    -50.05877 
    9909    36.533882  -0.39383157            0  -0.33716307   -31.418521 
    9910     36.95659  -0.39450232            0  -0.33717815   -9.5309095 
    9911    37.051685  -0.39466365            0  -0.33719198    16.656445 
    9912    36.711792  -0.39414644            0  -0.33720198    47.905821 
    9913    35.871382  -0.39284639            0  -0.33720551    84.409724 
    9914    34.531151   -0.3907625            0  -0.33720048    125.53336 
    9915    32.775432  -0.38802513            0  -0.33718645    169.65017 
    9916      30.7729  -0.38489813            0  -0.33716562     214.1726 
    9917     28.75232  -0.38174121            0  -0.33714286    255.86072 
    9918    26.955276  -0.37893479            0  -0.33712388    291.38247 
    9919    25.582136  -0.37679366            0  -0.33711265    317.94528 
    9920    24.753693    -0.375506            0  -0.33711001    333.75353 
    9921    24.501246  -0.37511866            0  -0.33711424    338.15016 
    9922    24.780904  -0.37556092            0  -0.33712272    331.48547 
    9923    25.498403  -0.37668423            0   -0.3371331    314.85767 
    9924    26.533072  -0.37829972            0   -0.3371437    289.84587 
    9925      27.7564  -0.38020694            0  -0.33715339    258.28617 
    9926    29.045299  -0.38221421            0  -0.33716141    222.09392 
    9927    30.291329  -0.38415284            0   -0.3371673    183.12337 
    9928    31.406674  -0.38588647            0   -0.3371709    143.06006 
    9929    32.326932  -0.38731534            0  -0.33717233    103.34909 
    9930    33.010747  -0.38837567            0  -0.33717199    65.161887 
    9931     33.43706  -0.38903525            0   -0.3371703    29.395828 
    9932    33.601446  -0.38928754            0   -0.3371676   -3.3079074 
    9933     33.51316  -0.38914702            0  -0.33716403   -32.544919 
    9934    33.193784  -0.38864711            0  -0.33715951    -58.13692 
    9935    32.677303  -0.38784044            0  -0.33715397   -80.128979 
    9936     32.01046  -0.38679953            0  -0.33714741   -98.783888 
    9937    31.251748  -0.38561543            0  -0.33714016   -114.55801 
    9938    30.467601  -0.38439189            0  -0.33713293   -128.04515 
    9939    29.725193  -0.38323411            0  -0.33712671   -139.88392 
    9940     29.08258   -0.3822332            0  -0.33712258   -150.63859 
    9941    28.578343  -0.38144985            0  -0.33712136   -160.67763 
    9942    28.223679  -0.38090172            0  -0.33712336   -170.08278 
    9943    27.999557  -0.38055895            0  -0.33712823   -178.61725 
    9944    27.860096  -0.38034944            0  -0.33713504   -185.76545 
    9945    27.741405  -0.38017283            0  -0.33714254    -190.8357 
    9946    27.573727  -0.37991961            0   -0.3371494   -193.10147 
    9947    27.294411  -0.37949139            0  -0.33715444   -191.95245 
    9948    26.859748  -0.37881943            0  -0.33715669   -187.03137 
    9949      26.2544  -0.37787929            0  -0.33715552   -178.33998 
    9950    25.497365  -0.37670027            0  -0.33715076   -166.29989 
    9951    24.643018  -0.37536722            0   -0.3371429     -151.752 
    9952    23.775402  -0.37401182            0  -0.33713328   -135.87544 
    9953    22.994396  -0.37279116            0  -0.33712405   -120.01502 
    9954    22.394533  -0.37185441            0  -0.33711776   -105.42932 
    9955    22.040576  -0.37130422            0   -0.3371166   -93.008893 
    9956    21.947112  -0.37116418            0  -0.33712154   -83.046038 
    9957    22.069946  -0.37136498            0  -0.33713181   -75.142381 
    9958    22.313982   -0.3717567            0    -0.337145   -68.304804 
    9959    22.556595  -0.37214576            0  -0.33715774   -61.216629 
    9960    22.680083  -0.37234623            0  -0.33716666   -52.610531 
    9961     22.60416  -0.37223109            0  -0.33716929   -41.639594 
    9962     22.30976  -0.37176984            0  -0.33716469   -28.146772 
    9963     21.84734  -0.37104183            0  -0.33715395   -12.756125 
    9964    21.325539  -0.37021872            0  -0.33714022    3.2583431 
    9965    20.880404  -0.36951607            0  -0.33712802    18.319974 
    9966    20.632383  -0.36912505            0  -0.33712172    31.029863 
    9967    20.645427  -0.36914732            0  -0.33712375    40.620473 
    9968    20.904076  -0.36955846            0   -0.3371337    47.206925 
    9969    21.317065  -0.37021406            0  -0.33714869    51.741487 
    9970    21.744128  -0.37089254            0  -0.33716475    55.707887 
    9971    22.034575  -0.37135627            0  -0.33717796    60.681716 
    9972    22.065838  -0.37141206            0  -0.33718526    67.890065 
    9973    21.773994  -0.37095895            0  -0.33718484    77.864007 
    9974    21.171233  -0.37001568            0  -0.33717652    90.244475 
    9975    20.346408  -0.36872184            0  -0.33716209    103.78691 
    9976    19.446608  -0.36730909            0  -0.33714504     116.5857 
    9977    18.642863  -0.36604689            0  -0.33712954    126.48113 
    9978    18.089972  -0.36517867            0  -0.33711892    131.53488 
    9979    17.894118  -0.36487051            0  -0.33711456     130.4199 
    9980    18.098364  -0.36518857            0  -0.33711581    122.60888 
    9981    18.687372  -0.36610714            0  -0.33712075     108.3416 
    9982     19.60481  -0.36753667            0  -0.33712723    88.438617 
    9983    20.774157  -0.36935688            0  -0.33713363    64.062072 
    9984    22.115456  -0.37144292            0  -0.33713916     36.50762 
    9985     23.55479  -0.37368005            0   -0.3371437    7.0686902 
    9986    25.027394  -0.37596795            0  -0.33714742    -23.03063 
    9987    26.477686   -0.3782205            0  -0.33715038   -52.664919 
    9988    27.859247  -0.38036559            0   -0.3371525   -80.829687 
    9989    29.135853  -0.38234689            0  -0.33715363   -106.66826 
    9990    30.282743  -0.38412598            0  -0.33715375   -129.49574 
    9991    31.286698  -0.38568255            0  -0.33715307   -148.80626 
    9992    32.144161  -0.38701148            0  -0.33715197   -164.25658 
    9993    32.857727  -0.38811724            0   -0.3371509   -175.63046 
    9994    33.432133  -0.38900753            0  -0.33715022   -182.79633 
    9995    33.871042  -0.38968821            0   -0.3371501   -185.67248 
    9996    34.175505  -0.39016086            0   -0.3371505   -184.20969 
    9997    34.344332  -0.39042345            0  -0.33715121   -178.39359 
    9998    34.375874  -0.39047317            0    -0.337152   -168.26201 
    9999    34.270195  -0.39030998            0  -0.33715273   -153.92636 
   10000    34.030317  -0.38993867            0  -0.33715351   -135.58348 
Loop time of 0.424235 on 1 procs for 10000 steps with 13 atoms

Performance: 10183.039 ns/day, 0.002 hours/ns, 23571.848 timesteps/s
82.8% CPU use with 1 MPI tasks x no OpenMP threads

MPI task timing breakdown:
Section |  min time  |  avg time  |  max time  |%varavg| %total
---------------------------------------------------------------
Pair    | 0.011144   | 0.011144   | 0.011144   |   0.0 |  2.63
Neigh   | 7.8678e-06 | 7.8678e-06 | 7.8678e-06 |   0.0 |  0.00
Comm    | 0.00058842 | 0.00058842 | 0.00058842 |   0.0 |  0.14
Output  | 0.31859    | 0.31859    | 0.31859    |   0.0 | 75.10
Modify  | 0.092245   | 0.092245   | 0.092245   |   0.0 | 21.74
Other   |            | 0.001662   |            |       |  0.39

Nlocal:        13.0000 ave          13 max          13 min
Histogram: 1 0 0 0 0 0 0 0 0 0
Nghost:         0.00000 ave           0 max           0 min
Histogram: 1 0 0 0 0 0 0 0 0 0
Neighs:        78.0000 ave          78 max          78 min
Histogram: 1 0 0 0 0 0 0 0 0 0

Total # of neighbors = 78
Ave neighs/atom = 6.0000000
Neighbor list builds = 3
Dangerous builds = 0
unfix l0
unfix frdf
unfix fpe
unfix fmsd
undump 1
undump 2
clear
Total wall time: 0:01:02
