LAMMPS (29 Oct 2020)
units metal
dimension 3
atom_style atomic
atom_modify map array
boundary p p p
region total_box block -8.56 8.56 -8.56 8.56 -8.56 8.56
create_box 1 total_box
Created orthogonal box = (-8.5600000 -8.5600000 -8.5600000) to (8.5600000 8.5600000 8.5600000)
  1 by 1 by 1 MPI processor grid
lattice bcc 4.28
Lattice spacing in x,y,z = 4.2800000 4.2800000 4.2800000
create_atoms 1 region total_box
Created 128 atoms
  create_atoms CPU = 0.000 seconds
pair_style hybrid/overlay eam/fs zero 10.0
pair_coeff * * eam/fs Na_v2.eam.fs Na
pair_coeff * * zero
compute rdf all rdf 200
compute ke all ke/atom
compute pea all pe/atom
compute pe all pe
compute s all stress/atom NULL virial
compute S all pressure NULL virial
compute flux all heat/flux ke pea s
compute msd all msd com yes
velocity all create 0.0 2 mom yes rot yes
thermo 1000
timestep 0.0001
fix fpe all ave/time 1 1000 1000 c_pe file TEMP/tmp.pe
fix fvir all ave/time 1 1000 1000 c_S[1] c_S[2] c_S[3] c_S[6] c_S[5] c_S[4] file TEMP/tmp.virial
fix fmsd all ave/time 1 1000 1000 c_msd[4] file TEMP/tmp.msd
fix fflux all ave/time 1 1000 1000 c_flux[*] file TEMP/tmp.flux
fix remove_drift all recenter 0.5 0.5 0.5 units box
dump 1 all xyz 1000 TEMP/dump_all.xyz
dump 2 all custom 1000 TEMP/dump_all.positions_and_forces id x y z fx fy fz
thermo_style custom step etotal pe temp press vol
fix 1 all npt temp 20 100 0.01 iso 0.0 0.0 0.01
dump 3 all xyz 1000 TEMP/dump_warm_1.xyz
dump 4 all custom 1000 TEMP/dump_warm_1.positions_and_forces id x y z fx fy fz
run 1000000
WARNING: Fix recenter should come after all other integration fixes (src/fix_recenter.cpp:132)
Neighbor list info ...
  update every 1 steps, delay 10 steps, check yes
  max neighbors/atom: 2000, page size: 100000
  master list distance cutoff = 12
  ghost atom cutoff = 12
  binsize = 6, bins = 3 3 3
  3 neighbor lists, perpetual/occasional/extra = 2 1 0
  (1) pair eam/fs, perpetual
      attributes: half, newton on
      pair build: half/bin/atomonly/newton
      stencil: half/bin/3d/newton
      bin: standard
  (2) pair zero, perpetual, copy from (1)
      attributes: half, newton on
      pair build: copy
      stencil: none
      bin: none
  (3) compute rdf, occasional, copy from (1)
      attributes: half, newton on
      pair build: copy
      stencil: none
      bin: none
Per MPI rank memory allocation (min/avg/max) = 11.31 | 11.31 | 11.31 Mbytes
Step TotEng PotEng Temp Press Volume 
       0    -141.9457    -141.9457            0    544.89921    5017.7761 
    1000   -141.95183   -141.95183 1.2974748e-21   -88.305847     5061.371 
    2000   -141.95185   -141.95185 1.9142549e-17   -84.228215    5061.0828 
    3000   -141.95029   -141.95029 8.2800483e-13    282.23064    5035.5743 
    4000     -141.952     -141.952 9.4143537e-08    7.5729025     5054.618 
    5000   -141.95067   -141.95105   0.02319621   -205.24551    5069.6812 
    6000   -141.39263   -141.70539      19.0519    149.89267    5079.7606 
    7000   -141.02023   -141.44065    25.610471   -99.601857    5205.7025 
    8000   -140.90649   -141.23261    19.866049    400.01078    5189.9938 
    9000   -141.08022   -141.38803    18.750816    -117.6602    5188.0412 
   10000   -141.49394   -141.84126    21.157233    98.102272    5078.6715 
   11000   -141.25582   -141.62032     22.20409   -8.2821181    5116.0845 
   12000   -141.14463   -141.47251    19.972737    82.423664    5157.4703 
   13000   -141.06133   -141.39071    20.064162    224.92743    5190.7874 
   14000   -141.19694   -141.56431    22.379077    198.36782    5145.2015 
   15000   -141.43737   -141.78218    21.004511   -263.39416    5186.1893 
   16000   -141.33375   -141.68024    21.106818    256.81835    5220.1566 
   17000   -141.61252   -141.96485    21.462827    199.09442    5301.1708 
   18000   -141.68805   -142.06641     23.04866   -82.587619    5364.2187 
   19000   -141.69455   -142.03686    20.852218    -71.28192    5359.0521 
   20000   -141.71725   -142.08984    22.696437   -743.54965    5388.3099 
   21000   -141.81396   -142.10431    17.687007     5.308151    5322.5013 
   22000   -141.72366   -142.04197     19.39008    65.088457    5312.2956 
   23000   -141.78036   -142.11961    20.665419   -143.01509    5323.2024 
   24000   -141.71081   -142.10829    24.212945    -30.05584    5308.7328 
   25000   -141.80679   -142.15973    21.499677    320.55444    5275.5933 
   26000   -141.76647   -142.09452    19.983469   -7.4544405    5284.8803 
   27000   -141.85462   -142.20031    21.057865   -320.76328    5307.8164 
   28000    -141.7986   -142.16781    22.491014   -161.70478    5294.0792 
   29000   -141.79642   -142.19662    24.378348     231.2051    5273.7597 
   30000   -141.89725   -142.23922    20.831428    42.917107    5275.6493 
   31000   -141.82834   -142.22549    24.192848    140.05992    5264.3128 
   32000   -141.83913   -142.21849    23.109369   -174.24604    5295.8913 
   33000    -141.8799   -142.21591    20.468602    -191.7267    5289.7308 
   34000   -141.79778   -142.17456     22.95143    27.228942    5277.5631 
   35000   -141.85741   -142.23322    22.893032    169.18684    5270.7357 
   36000   -141.87127   -142.25749    23.526846    13.422898    5275.0995 
   37000   -141.89013     -142.287    24.176012   -549.90405    5313.4881 
   38000   -141.88968   -142.23837    21.240483   -180.47843    5287.5185 
   39000   -141.87071   -142.23911    22.441498     204.5704    5280.2517 
   40000    -141.7577   -142.19574    26.683449    257.54312    5270.1831 
   41000   -141.89033   -142.24987    21.901681   -226.45594    5290.7143 
   42000    -141.8753   -142.28103    24.715258   -245.33071      5290.49 
   43000   -141.88331   -142.25939    22.909205    -153.6619    5286.9578 
   44000    -141.9106    -142.2918    23.221539    90.487729    5280.8538 
   45000   -141.90683   -142.29377     23.57057    -58.48118    5286.5729 
   46000   -141.82786   -142.21376    23.507318   -21.550111    5299.9106 
   47000   -141.88117   -142.28023    24.308767   -199.40356     5305.178 
   48000   -141.92044   -142.26819    21.183634    182.86663    5285.6838 
   49000   -141.81939   -142.25594    26.593132    221.71786    5292.1868 
   50000   -141.85821    -142.2843    25.956293   -17.813621     5308.699 
   51000   -141.94785   -142.29905    21.393381   -15.277539    5309.1918 
   52000   -141.75256   -142.19138    26.730983   -91.588923    5299.4612 
   53000   -141.90499   -142.26044    21.653002   -66.800605    5303.0998 
   54000   -141.83901   -142.22538    23.536408    191.09562     5294.246 
   55000   -141.88857   -142.23345    21.008802    -109.1202    5311.0054 
   56000   -141.86495   -142.25665    23.860481    29.497352    5295.8925 
   57000   -141.84752    -142.2687    25.656599    112.37714     5292.655 
   58000   -141.86634   -142.27735    25.036819    139.74694    5295.2345 
   59000   -141.82294    -142.2228    24.357609   -19.120383    5303.2384 
   60000   -141.78515   -142.22343    26.698715    216.91692     5278.701 
   61000   -141.84147   -142.25896    25.432035    128.68555    5279.6022 
   62000   -141.85316   -142.24541    23.894461    141.94178    5285.8526 
   63000    -141.8521   -142.26721    25.286509    80.337065    5289.8277 
   64000   -141.84255   -142.27836    26.547503   -537.92096    5338.7079 
   65000   -141.83678   -142.23248    24.104551  -0.56681075    5304.6092 
   66000    -141.8083   -142.24653     26.69534    251.68113    5293.2921 
   67000   -141.87493   -142.23728    22.072911    77.338441    5310.2846 
   68000   -141.77534   -142.21159    26.574324   -13.202806    5312.3675 
   69000   -141.81653   -142.24126    25.872877    75.445489    5298.3125 
   70000   -141.93274   -142.29518    22.078844   -456.95882    5325.7185 
   71000   -141.82347   -142.20178    23.044918    47.234294    5291.8286 
   72000   -141.81426   -142.27927    28.326057    85.284902    5299.0016 
   73000   -141.81972   -142.23764    25.458057    292.71682     5278.903 
   74000   -141.77702   -142.19427    25.416964     65.35903    5298.8772 
   75000   -141.83622   -142.26757    26.276406   -472.61028    5325.1933 
   76000   -141.79267   -142.22161    26.129377    524.27572    5268.3061 
   77000   -141.83581   -142.22426    23.662962    8.2862998    5294.8961 
   78000    -141.8192   -142.25698    26.668002    293.58274    5289.3946 
   79000   -141.75835   -142.20463    27.185746   -125.28802     5316.365 
   80000   -141.79007   -142.20565    25.315029   -298.98447    5331.6067 
   81000   -141.79796   -142.24053    26.959909    86.373353    5312.1336 
   82000   -141.80102   -142.25391    27.588274    165.51837    5297.0788 
   83000    -141.8072   -142.22671      25.5551   -108.38674    5308.0913 
   84000   -141.68532   -142.19868    31.271686    188.63595    5287.2127 
   85000   -141.91679   -142.30952    23.923612    55.396967    5286.5568 
   86000   -141.76574   -142.22181    27.782097    261.51039    5279.4883 
   87000   -141.84032   -142.28256    26.939557   -243.63007    5310.3642 
   88000   -141.86478   -142.27285    24.858342    108.00465    5285.1827 
   89000   -141.83709   -142.30594    28.560653   -95.653916    5292.0069 
   90000   -141.81038   -142.27785    28.476094   -368.54433    5296.9924 
   91000   -141.75603   -142.20302    27.229185     93.51543    5282.5438 
   92000   -141.85435   -142.24194    23.610415    343.31292    5261.9709 
   93000   -141.86741   -142.29791    26.224422   -32.833801    5275.3263 
   94000    -141.7451   -142.25099    30.816602   -366.77428    5297.5764 
   95000   -141.81651   -142.27818      28.1231    64.289066    5289.7898 
   96000   -141.84188   -142.20721    22.254017      -17.792    5282.7799 
   97000   -141.83278   -142.29162    27.950787    418.26666    5246.7631 
   98000   -141.78587   -142.32112    32.605395   -72.577174    5286.2521 
   99000   -141.88753   -142.32612     26.71718    254.51527    5278.4418 
  100000   -141.77823    -142.2444    28.397507   -621.90498    5311.7581 
  101000   -141.85044   -142.32442    28.872786    290.37515    5255.9129 
  102000   -141.84335   -142.29296    27.388541    384.77549    5266.8663 
  103000   -141.85866   -142.32516    28.417174   -7.6787686    5279.8676 
  104000   -141.83036   -142.25974    26.155911    157.28691    5272.1379 
  105000   -141.71865   -142.19924     29.27529   -482.54319    5310.1747 
  106000   -141.88063   -142.34989    28.585323   -91.549464    5291.2026 
  107000   -141.86071   -142.29107    26.215736   -204.64818    5282.6731 
  108000   -141.79428    -142.2916    30.294648   -11.804504     5287.756 
  109000   -141.75574   -142.27002    31.327715    213.56673     5277.641 
  110000   -141.73236   -142.27352    32.965528   -497.06025     5306.893 
  111000   -141.80111   -142.27057     28.59782     -30.6062    5286.1161 
  112000   -141.83667    -142.2735    26.610198   -66.935822    5285.3962 
  113000   -141.78771    -142.2781     29.87222   -84.662902    5287.4953 
  114000    -141.7664   -142.25594    29.820957     595.1463    5254.1917 
  115000    -141.8908   -142.28585    24.064446    250.50593    5267.3093 
  116000   -141.77512   -142.25494    29.229146   -95.989916    5286.0156 
  117000   -141.70409   -142.25764    33.719875    448.63608    5257.5748 
  118000   -141.83251   -142.29966    28.456605    64.386422    5281.0359 
  119000   -141.80964   -142.27252    28.196938    128.42739    5274.7539 
  120000    -141.7346   -142.23933     30.74623    222.88024    5277.6632 
  121000   -141.73383   -142.25178    31.551106   -461.21285    5313.3547 
  122000   -141.78765   -142.26938    29.345487   -255.10377    5292.4757 
  123000   -141.83871   -142.25713    25.488178   -346.66282    5292.4234 
  124000   -141.70045   -142.22108    31.714519    13.397936    5282.6475 
  125000   -141.81469   -142.28922    28.906282    139.05739    5276.0566 
  126000   -141.73434   -142.24589    31.161614   -561.29136    5303.9292 
  127000   -141.72684   -142.22881    30.578017    25.901697    5278.1067 
  128000   -141.87882   -142.29218    25.180038    173.74146    5275.7182 
  129000   -141.74255   -142.27301    32.313251    125.46336    5276.6365 
  130000   -141.71571   -142.23946    31.905251    212.54092    5275.9389 
  131000   -141.74837   -142.25851    31.075629    77.656022    5278.4337 
  132000   -141.74799   -142.23183    29.473635   -535.85375    5303.4762 
  133000   -141.77356   -142.25371    29.248247   -62.682788    5277.9785 
  134000   -141.72465   -142.20518    29.272084   -349.40544    5297.4307 
  135000   -141.77134   -142.27365    30.598914   -278.28424    5293.0903 
  136000   -141.68978   -142.20895     31.62595    160.35956    5277.3716 
  137000   -141.81233   -142.28684    28.905179    540.43479      5252.42 
  138000   -141.66503   -142.22491    34.106041   -192.89648    5291.5635 
  139000   -141.66767   -142.22044    33.672325    53.538401    5281.2477 
  140000   -141.77386   -142.27822     30.72377   -741.19977    5319.8017 
  141000   -141.76542   -142.21568     27.42809   -239.18381    5291.5005 
  142000    -141.7428   -142.25276    31.064416   -57.999225    5283.6504 
  143000   -141.67163   -142.25721    35.670895     258.4744    5275.3043 
  144000   -141.67907    -142.2293    33.518047    -254.9978    5288.0854 
  145000   -141.70982   -142.18779    29.115738   -403.30168    5295.7561 
  146000   -141.69511   -142.26079    34.458578    178.12192    5278.2258 
  147000   -141.75077   -142.23971    29.784591    84.350486    5279.6564 
  148000    -141.7455   -142.20643    28.078401   -378.09135     5306.949 
  149000   -141.68557    -142.2444     34.04178    367.88373    5262.8576 
  150000   -141.64594   -142.21264    34.520896    527.69402    5251.3251 
  151000   -141.75221   -142.24076    29.760548   -167.54423    5288.3307 
  152000   -141.68532   -142.18898    30.681184    118.65129    5279.1077 
  153000   -141.68331   -142.25238    34.665454   -305.04004    5295.4897 
  154000   -141.74365   -142.22843    29.531153    106.75819    5276.8595 
  155000    -141.6875   -142.20924    31.782474    76.479477    5281.9945 
  156000   -141.63591   -142.22966    36.169222    244.49008    5271.4547 
  157000   -141.69749   -142.23353    32.653181    465.33317    5255.0092 
  158000   -141.73095   -142.19743    28.415997    104.81831    5275.3341 
  159000   -141.59985   -142.16642    34.513339   -278.49402    5300.0558 
  160000   -141.71032   -142.21808    30.930762   -256.51501    5292.3829 
  161000    -141.7274   -142.24943    31.800013   -274.50154    5295.1382 
  162000    -141.6508   -142.21193    34.182029     152.9724     5271.286 
  163000   -141.64678    -142.1708    31.921445   -117.62732    5288.9902 
  164000   -141.72383   -142.21639    30.004349    -145.6291    5295.8601 
  165000   -141.59353   -142.21074    37.598568   -204.53492    5292.7715 
  166000   -141.64699   -142.20838    34.197788     442.9411    5255.6335 
  167000   -141.75111   -142.18554    26.463457    74.825246    5278.3841 
  168000    -141.6652   -142.22004    33.798912    302.01499    5273.5581 
  169000   -141.61875    -142.1974    35.248633    10.125908    5279.6393 
  170000   -141.68284   -142.18285    30.458975    223.28567    5273.2682 
  171000   -141.58014   -142.19469     37.43581    419.31166    5262.1585 
  172000   -141.75006   -142.25641    30.844729   -163.15619    5286.2276 
  173000    -141.4931   -142.10997    37.577175    6.2789879    5284.6853 
  174000   -141.62461   -142.17496    33.524782    313.19636    5260.2559 
  175000   -141.65276   -142.17999     32.11662    76.599406    5274.0643 
  176000    -141.6388   -142.23788    36.493047   -61.060291    5286.7433 
  177000   -141.63649   -142.22808    36.037469   -113.71397    5286.0749 
  178000   -141.59159   -142.12395    32.429091   -163.25162    5295.5026 
  179000   -141.54649    -142.1662    37.750505    27.315295    5285.9675 
  180000   -141.72303   -142.23148     30.97275    221.84065    5273.9257 
  181000   -141.64309   -142.16321    31.683956    18.097062    5280.4554 
  182000   -141.59347    -142.1971    36.770981    299.02221    5266.2553 
  183000   -141.59591   -142.16377    34.591692    336.28454    5268.6885 
  184000   -141.68368    -142.2451    34.199577    250.92196    5269.1253 
  185000   -141.51273    -142.1346    37.882188    552.48263    5252.9011 
  186000   -141.54172   -142.18123    38.956532    143.58612    5277.5577 
  187000   -141.59005   -142.16846    35.234308    159.86459    5269.3224 
  188000   -141.56885   -142.13453    34.458977    327.52021    5257.5012 
  189000   -141.57415   -142.16929    36.253573    552.91342    5251.6358 
  190000   -141.54597   -142.10155     33.84324   -90.747131    5276.4638 
  191000   -141.61692   -142.19917    35.467983    290.14925    5263.5136 
  192000   -141.58799   -142.18974    36.656078    136.78916    5280.3355 
  193000   -141.62176   -142.20301    35.407157    99.909738    5274.7815 
  194000   -141.49479   -142.09947    36.834972   -80.051021    5277.4819 
  195000    -141.6653   -142.20234     32.71443   -46.155275    5284.5448 
  196000   -141.54335   -142.16062    37.601838    28.892123    5279.7684 
  197000    -141.5747    -142.1144    32.876198   -34.344601    5285.0482 
  198000   -141.62237   -142.19678    34.990688    327.85753    5269.7207 
  199000   -141.47867   -142.15295    41.073962   -28.003034    5280.6078 
  200000   -141.64849   -142.18359    32.596039   -220.36889    5297.3052 
  201000   -141.52987   -142.13038    36.580624   -66.979261    5284.6141 
  202000   -141.54296   -142.16081    37.636952    361.56322    5262.4846 
  203000   -141.43716   -142.04913    37.278799    686.78174    5246.5061 
  204000   -141.64109   -142.16714    32.044568   -380.46782     5311.892 
  205000   -141.50225   -142.12592    37.991859   -163.20841    5282.5199 
  206000   -141.47968   -142.10629    38.170361   -456.19659    5294.0839 
  207000   -141.57851   -142.17029    36.048933    536.13145    5251.2398 
  208000    -141.4496   -142.08967    38.990057    622.02447    5254.1282 
  209000    -141.5956   -142.12793    32.427726   -290.05091    5297.1522 
  210000   -141.58488   -142.16541    35.363426    69.913741    5275.2599 
  211000   -141.51683   -142.18301    40.580851   -146.44532     5285.247 
  212000   -141.54392   -142.10363    34.095011    133.03439    5268.3752 
  213000    -141.5209   -142.09728    35.110837   -99.777606    5286.6459 
  214000   -141.63679   -142.20626    34.689714    541.64307    5248.7027 
  215000   -141.40549   -142.08771    41.558438    247.86308     5263.435 
  216000   -141.58197   -142.15908    35.154985    141.98785    5269.8798 
  217000   -141.57476   -142.11584    32.960138   -235.54181    5295.8377 
  218000   -141.38926   -142.07142    41.554749    213.73224    5260.7998 
  219000   -141.53605    -142.1307    36.223918   -319.37874    5291.3678 
  220000   -141.62922   -142.17406    33.189949    155.11951    5272.4672 
  221000   -141.48171   -142.11081    38.321724    177.00088    5277.6598 
  222000   -141.50983   -142.07268    34.286747   -38.601171    5278.5378 
  223000   -141.47708    -142.1255     39.49927     589.1239    5243.2461 
  224000   -141.61288   -142.15725    33.160838    24.850967    5279.6934 
  225000   -141.44225   -142.08946    39.425335   -298.52666    5295.8593 
  226000   -141.48057   -142.12972    39.543979    208.62833     5272.073 
  227000   -141.40558   -142.07872    41.004629   -44.213708    5277.7964 
  228000   -141.48379   -142.11836     38.65539    34.238787    5280.7344 
  229000   -141.54523   -142.11193    34.521287    -181.2701    5291.7379 
  230000   -141.35177   -142.08755    44.820803    66.949108    5268.2858 
  231000   -141.41117   -142.15678     45.41942   -107.23424    5283.7168 
  232000   -141.48235   -142.13255    39.607997    92.356508    5284.5545 
  233000   -141.43844   -142.02887     35.96673   -88.520226    5289.7875 
  234000   -141.43979   -142.15727    43.705737    21.165237     5279.721 
  235000    -141.4203   -142.07761    40.040624   -135.41007    5282.7996 
  236000   -141.44142   -142.08191    39.016041    38.135627    5284.9107 
  237000   -141.55182   -142.13407    35.468307    137.33858    5280.9165 
  238000   -141.31121   -142.04369    44.620103   -67.270274    5284.7456 
  239000   -141.54791   -142.10886    34.171275   -241.15925    5295.6439 
  240000   -141.48365   -142.08854    36.847076    4.3225127    5276.7921 
  241000   -141.36573   -142.03414    40.716546    476.80116     5258.329 
  242000   -141.48423    -142.1516    40.653573   -56.598089    5290.3709 
  243000   -141.49636   -142.12578    38.341561    419.26483    5257.0503 
  244000   -141.40579   -142.07578    40.813331    18.233433    5279.0138 
  245000   -141.42367   -142.10472    41.486501   -256.41334    5304.3395 
  246000   -141.43647   -142.07593    38.953522   -8.6846662    5276.1852 
  247000   -141.53115    -142.0849    33.732528   -195.20568    5289.7837 
  248000   -141.39099   -142.05933    40.712518    291.08032    5262.7173 
  249000   -141.35016   -142.10435    45.942356    362.93771    5274.2165 
  250000   -141.39116   -141.98159    35.966412     145.1622    5263.1976 
  251000    -141.4006   -142.06858    40.690417   -596.95451    5304.3886 
  252000   -141.51875   -142.13829    37.739859    216.44709     5268.695 
  253000   -141.29936   -141.97241    40.999415    312.69442    5270.2654 
  254000   -141.44383   -142.14508    42.717478   -215.74023    5299.0174 
  255000   -141.50833   -142.09866    35.960391   -264.12052    5291.3983 
  256000   -141.25081   -141.94795    42.467128   -623.87602    5312.4977 
  257000   -141.52897   -142.18533    39.983045    228.56397    5276.1046 
  258000   -141.33125   -142.00399    40.980578    97.288912    5275.1744 
  259000   -141.45694   -142.04725    35.959423   -262.74889    5282.9469 
  260000   -141.44955   -142.08439    38.671671    191.35782    5263.4552 
  261000   -141.34158   -142.08771    45.450941    -201.0174    5303.3188 
  262000   -141.30623   -142.04102    44.760796   -460.20709    5311.1328 
  263000   -141.45371    -142.0741    37.791334   -135.41894    5277.4583 
  264000   -141.29899   -142.05329    45.948489    114.45396    5276.4736 
  265000     -141.364   -141.97798    37.401667    44.342892    5275.2029 
  266000   -141.43766   -142.14908    43.337035    69.984462    5274.7618 
  267000    -141.3831   -142.05144    40.712318   -81.427898    5286.5897 
  268000   -141.34945   -142.02644    41.239674   -143.67797    5286.0112 
  269000   -141.38054   -142.07333    42.202087   -583.91571    5325.3321 
  270000   -141.56486   -142.10543    32.929722    271.09802     5270.449 
  271000   -141.35036   -142.02977    41.387355    62.958769    5271.2253 
  272000   -141.27192   -141.99828    44.246651    56.079891    5281.1856 
  273000   -141.51245   -142.16511    39.757301   -80.408587    5275.9572 
  274000   -141.26791   -141.94257    41.097695   -205.41143    5288.6986 
  275000   -141.19574   -141.98006     47.77787    540.49411    5261.2946 
  276000   -141.40783   -142.05502    39.424709      550.204    5248.2994 
  277000   -141.37681   -142.03828    40.294053   -228.99821    5285.9356 
  278000   -141.33549   -142.06918    44.693264    43.163333    5277.8926 
  279000   -141.28894   -141.96704    41.307226    7.4445367    5280.2845 
  280000   -141.36753   -142.09579    44.362537   -443.21705    5305.5952 
  281000   -141.30909   -142.09822    48.070407    722.76858     5241.807 
  282000   -141.33432   -141.98349    39.544939    221.45744    5269.9529 
  283000   -141.26876   -142.02628    46.145211     45.29307     5271.925 
  284000   -141.29388   -142.04848       45.967   -41.952018    5285.5484 
  285000   -141.40782   -141.99879    35.999456    160.93128    5272.0192 
  286000   -141.36173   -142.09938    44.934331    200.67911    5269.9882 
  287000   -141.31398   -141.98444    40.841404     915.0914    5234.1826 
  288000   -141.43138   -142.12372    42.174434    266.56027    5264.3675 
  289000   -141.29933   -141.93705    38.847025   -101.23764    5280.5655 
  290000   -141.28869   -141.96256    41.049145    394.01913    5248.8549 
  291000   -141.41057    -142.1336    44.043711    64.291758    5281.5335 
  292000   -141.29554   -141.97832    41.592193    80.223053    5281.5278 
  293000   -141.27823   -142.00175    44.074021    93.241913    5260.9595 
  294000   -141.28138   -142.01773    44.854978    -137.5493    5286.3474 
  295000   -141.30663   -142.03417    44.319223    192.32701    5277.7394 
  296000    -141.3282   -142.02479    42.433518    71.611814    5274.8923 
  297000   -141.28003   -141.99522    43.566184   -193.79751    5286.5338 
  298000   -141.23285   -142.03083    48.609962    42.423038    5280.8413 
  299000   -141.40163   -142.07767    41.181312    131.86456    5270.9363 
  300000   -141.23011   -141.95636    44.240534    192.53045    5264.8642 
  301000   -141.15913   -141.99296    50.793566     91.21474    5272.5452 
  302000    -141.2899   -141.99237    42.791498   -301.81394    5293.9907 
  303000   -141.31947   -142.05469     44.78702   -517.62413    5304.1234 
  304000   -141.25667   -141.96922    43.405903     148.9942    5269.3097 
  305000   -141.28818   -141.98812    42.637593   -190.36323    5287.1096 
  306000   -141.31447   -142.03335    43.791857    494.56923    5245.6174 
  307000   -141.20328   -141.97682    47.121007   -182.91116    5298.0176 
  308000   -141.22259   -142.04844    50.307096    -10.01705    5284.5634 
  309000   -141.21479   -141.95106    44.850371   -677.53191    5316.3273 
  310000   -141.30944   -142.08122    47.013254   -290.26524    5290.8755 
  311000   -141.29247   -141.95182    40.165409     366.7007    5257.4396 
  312000   -141.07107   -141.82841    46.134518    18.547112    5276.0907 
  313000   -141.36759   -142.02628    40.124713    679.81008    5240.3762 
  314000    -141.2884   -142.00476    43.637909    66.079079    5262.1578 
  315000   -141.33828   -142.00956    40.891508   -104.88556    5272.1879 
  316000   -141.14925   -141.91748     46.79726    96.427172    5284.1427 
  317000   -141.32701   -142.08922    46.430766    74.208718    5279.7201 
  318000   -141.19327   -141.94737    45.936179   -471.63401    5308.8374 
  319000   -141.33823   -141.98972    39.686099   -241.81838    5283.9135 
  320000   -141.22644   -141.96604    45.053572   -375.47074    5292.1988 
  321000   -141.18006   -141.95911    47.456995    -120.1781    5286.6901 
  322000   -141.22358   -142.00074    47.341515   -180.87963    5277.8724 
  323000     -141.225   -141.93957    43.528909     409.4528    5248.7306 
  324000   -141.27536   -142.01738    45.200994   -319.40243    5290.6159 
  325000   -141.26534   -141.96105      42.3804   -358.46892    5299.4949 
  326000   -141.12999   -141.90981    47.503703   -120.91016     5294.272 
  327000   -141.09785   -141.90758    49.325611    188.51677    5262.3029 
  328000    -141.1425   -142.00892    52.778429     120.1097    5255.9942 
  329000   -141.27301   -141.99035    43.697275    242.32895    5276.6634 
  330000   -141.17215    -141.9214    45.641689   -760.94795    5319.9513 
  331000   -141.14486   -141.94453    48.712628    39.042221    5259.4271 
  332000   -141.25664   -141.93745    41.472521    387.58152    5252.8238 
  333000   -141.19546   -142.03038    50.859973    237.53911    5276.3916 
  334000   -141.20679   -141.99363    47.931033    385.22173    5261.3417 
  335000   -141.14111   -141.85873    43.714419   -333.41189    5296.7047 
  336000   -141.19758   -141.99276    48.438762   -775.07473     5316.358 
  337000   -141.17597   -141.95996    47.757764    129.85731    5270.3596 
  338000   -141.25515   -141.93063    41.147562    334.51422    5264.3132 
  339000   -141.19752   -141.94646    45.622591   -283.82843    5301.3731 
  340000   -141.11022   -141.99896    54.138025   -524.23278    5316.3136 
  341000    -141.1207   -141.86603    45.402478   -179.34509     5288.027 
  342000   -141.20099   -141.94438    45.284153   -616.05094    5321.0281 
  343000   -141.21197   -142.01221    48.747614   -215.03573    5303.5407 
  344000   -141.17874   -141.93172    45.868957    560.13737    5241.6356 
  345000   -141.23606   -142.01372    47.371928    157.32782    5271.6889 
  346000   -141.03011   -141.85746    50.398602   -354.55897    5313.4042 
  347000   -141.23348   -141.92236    41.963875    218.39509     5261.551 
  348000   -141.21586   -142.02031    49.004005   -805.85229    5325.1817 
  349000   -141.06763   -141.88707     49.91713    68.242925     5278.056 
  350000   -141.18904   -141.90088    43.362217   -345.91176    5300.1414 
  351000   -141.03939   -141.82341    47.759617     120.5994    5271.8847 
  352000   -141.11064   -141.91486    48.989834   -33.001345    5281.7045 
  353000   -141.35104   -142.08922     44.96691   -234.72589    5292.2116 
  354000   -140.97621   -141.82404      51.6465   -173.68826    5284.3744 
  355000   -141.20536     -141.918    43.411546    154.13862    5266.8352 
  356000    -141.0046   -141.88155    53.419941   -171.83084    5296.2394 
  357000   -141.19033   -141.93315    45.249636   -127.34736    5280.9164 
  358000   -141.17712   -141.97917    48.857316    53.244196    5260.2039 
  359000   -140.98903   -141.86348    53.268302    227.26143    5272.9546 
  360000   -141.22077    -141.9041    41.625928    65.721667    5286.2698 
  361000    -141.1225   -141.95563    50.750681    154.08604    5271.8686 
  362000   -141.10541   -141.98954    53.857466    214.16069    5255.1978 
  363000   -140.97224   -141.79998    50.422359    -261.0517    5294.1346 
  364000   -141.15231   -141.98203    50.543175    191.48366    5286.0653 
  365000   -141.22825   -141.92393    42.378018    82.567862     5276.171 
  366000   -141.01296    -141.8529    51.165407   -9.1475958    5275.7623 
  367000   -141.09401   -141.91688    50.125657   -138.64928    5288.0864 
  368000   -141.29561   -141.98403    41.935758   -382.49568    5300.6306 
  369000   -140.92286   -141.82597    55.013938    57.105402    5278.6677 
  370000   -141.11854   -141.83863    43.865302   -461.80732    5307.2356 
  371000   -141.05835   -141.86046    48.860816   -21.690024    5288.3654 
  372000   -141.01703   -141.93045    55.642159   -98.386621    5289.5058 
  373000   -141.04126   -141.97218    56.707861    282.90728    5266.3291 
  374000   -141.09668   -141.89428    48.586584    384.04571    5260.4193 
  375000   -141.00154   -141.81138    49.332341    308.69349     5275.884 
  376000   -141.03167   -141.88387    51.912649    619.61364     5250.084 
  377000   -141.09382   -141.96494    53.065195    35.360454    5274.1676 
  378000   -140.98943   -141.79992    49.372064   -44.883639    5282.8827 
  379000   -141.09152   -141.92141    50.553735    17.700619    5288.8652 
  380000   -141.08733   -141.94854    52.461373   -70.720759    5286.3386 
  381000   -141.10521   -141.90895    48.960566   -267.06982    5299.7327 
  382000   -140.93427   -141.87512    57.312733    215.53995    5266.5978 
  383000   -140.93557   -141.75308    49.799533     -134.187    5299.0357 
  384000   -141.07689   -141.86648    48.098843    138.01243    5286.2144 
  385000   -141.10047   -142.02875    56.547556    754.65996    5245.0873 
  386000   -141.12776   -141.89314    46.624038   -397.07706    5279.9857 
  387000   -140.89385   -141.74114    51.613081   -343.67876    5294.4304 
  388000   -140.96101   -141.89726    57.032916   -333.64226    5316.7694 
  389000   -140.87754   -141.74715    52.973413   -315.19192    5287.2555 
  390000   -141.15452   -141.93238    47.384492    499.44673     5241.817 
  391000   -140.99029   -141.82925     51.10629    419.66973    5261.2091 
  392000   -140.97967    -141.9142    56.927633   -372.65374    5313.6797 
  393000   -140.95394   -141.82687    53.175611    533.28287    5255.0818 
  394000   -141.10223   -141.95069     51.68504   -649.25602    5314.3004 
  395000   -141.14242   -141.82959    41.859662    601.14869    5251.7805 
  396000   -140.96609   -141.87173    55.168068    4.3539653    5281.3511 
  397000   -141.03177   -141.86789    50.933045    112.72452    5272.2553 
  398000   -141.04096   -141.82144    47.543746   -299.10051    5297.7338 
  399000   -140.99421   -141.85236    52.275278    422.60264    5255.9896 
  400000   -141.02374   -141.91598    54.351788   -298.51311    5295.6429 
  401000   -140.90172   -141.69926    48.583183   -873.89869    5326.1106 
  402000   -141.02925   -141.80852    47.469686   -585.11081    5315.9568 
  403000   -141.09586   -141.87209    47.285189    415.22526    5260.0347 
  404000   -140.98957   -141.78743    48.602117   -190.74113    5286.4762 
  405000   -140.85659    -141.8394    59.868822    436.37629    5255.7007 
  406000   -141.07138   -141.86851    48.557521   -292.61417    5293.7474 
  407000   -141.03954   -141.88928     51.76283   -334.59767     5303.905 
  408000   -141.02896   -141.79733    46.806118   -409.30428    5298.1213 
  409000   -141.06706   -141.89389    50.367645    22.828935    5284.5105 
  410000   -140.87502   -141.78463    55.409352   -565.00098    5318.9005 
  411000   -140.88548   -141.90106    61.865108   -864.26838    5318.6621 
  412000   -141.05339   -141.86886    49.675319   -381.82857    5289.2002 
  413000   -141.00488   -141.76893    46.542961    166.43047    5265.9977 
  414000   -140.87682    -141.7733    54.609594   -457.13198    5307.5797 
  415000    -140.9698   -141.93495    58.793231    530.03441    5255.9243 
  416000   -140.88308   -141.69587    49.511651   -300.85183    5286.4454 
  417000   -140.87865   -141.74899     53.01764     90.69356    5264.8801 
  418000   -140.77919   -141.72402    57.554908   -32.399997    5287.4692 
  419000   -141.02984   -141.86661    50.972651   -200.47871    5297.8106 
  420000   -140.91102   -141.81602     55.12922     157.3926    5275.5843 
  421000   -140.98699    -141.7702    47.709985    115.61008    5275.2807 
  422000   -141.05411   -141.88054     50.34309    273.48005    5260.3606 
  423000   -140.94842   -141.80101    51.936226    -302.4301    5296.5746 
  424000   -140.62922   -141.62994    60.960094   -58.210245    5291.9873 
  425000   -140.97904   -141.83052    51.868882    78.746561    5267.1321 
  426000   -140.97425   -141.85995    53.952992    34.102637    5277.9956 
  427000   -140.75262   -141.77417    62.228869    31.747197    5283.5092 
  428000   -140.93837   -141.80576    52.837477   -46.013316    5298.8618 
  429000   -140.97751   -141.83894    52.474735   -239.44735    5292.3282 
  430000   -140.84085    -141.7918    57.928621    343.80371    5258.7744 
  431000   -141.07896   -141.89137    49.489115    68.843278    5289.0277 
  432000   -140.78432   -141.69283    55.342931   -49.836412     5282.801 
  433000   -140.82757    -141.7543    56.452725    606.37571    5237.9995 
  434000   -140.85404   -141.79211    57.143679   -375.96445    5312.5836 
  435000   -140.78844   -141.71864    56.664381   -141.82126    5305.6392 
  436000   -140.92985   -141.77642    51.569883   -127.93506     5290.692 
  437000   -140.73042   -141.74391    61.737858   -156.84433    5286.4021 
  438000   -140.87631   -141.82659    57.887239    109.40937    5268.7041 
  439000   -140.99058    -141.7861    48.460081    15.163268    5279.3839 
  440000    -140.6466   -141.64388    60.750318    283.94083    5271.6224 
  441000    -141.0921   -141.85064    46.206878    74.876826    5284.5349 
  442000    -140.8067   -141.75487    57.758644    214.37729    5273.1259 
  443000   -140.95368   -141.80938    52.125998   -106.25065    5273.4355 
  444000   -140.71092   -141.64181    56.705684    188.72064    5253.7575 
  445000   -140.75311    -141.7403     60.13594    118.58423    5280.1965 
  446000   -140.79357    -141.7004    55.240311   -438.37922    5305.6486 
  447000   -140.94987   -141.79172    51.282259    -10.97752    5279.9132 
  448000   -140.98642   -141.86311    53.404491   0.65512784    5275.2368 
  449000   -140.75815   -141.68816    56.652766   -17.310396    5285.2548 
  450000   -140.84953   -141.82271    59.282633   -393.53682    5307.1057 
  451000   -140.88161   -141.80954    56.525565    291.03087    5263.7752 
  452000   -140.90471   -141.77912     53.26513    443.54247    5255.6297 
  453000   -140.92186   -141.80012    53.499802   -52.897429    5285.2908 
  454000   -140.85755   -141.79422    57.058075    536.49144    5249.4834 
  455000   -140.70748   -141.60499    54.672569   -41.697192    5272.5829 
  456000    -140.8224   -141.74229    56.036154   -350.85547    5295.5445 
  457000   -140.93953   -141.86448    56.344647    156.54046    5262.0957 
  458000   -140.81262   -141.80344    60.357076   -458.48875    5315.0411 
  459000    -140.8194   -141.76557    57.636873   -4.4662812    5283.7794 
  460000   -140.98012   -141.83682    52.186474    277.21322    5259.9877 
  461000   -140.84027   -141.75923    55.979025   -120.38923    5276.8355 
  462000   -140.75381   -141.68904    56.970873    272.25995    5253.4836 
  463000    -140.8268   -141.69289    52.758642     685.7171    5250.2767 
  464000   -140.84632   -141.78985    57.476017    350.20854     5262.547 
  465000   -140.69665   -141.70039    61.144319   -825.02982    5316.4569 
  466000   -140.88603   -141.68429    48.626426    168.87522    5272.0594 
  467000   -140.68671   -141.68166    60.608121    740.77029    5242.2614 
  468000   -140.82752   -141.77137    57.495504   -60.197215    5287.8609 
  469000   -140.89063   -141.82428    56.874067   -254.97404    5291.7137 
  470000   -140.89574   -141.81186    55.806679    703.24769    5240.7378 
  471000   -140.70762    -141.6759    58.983331   -130.10156    5283.3733 
  472000   -140.83094   -141.76348    56.806789    392.55615    5268.9627 
  473000   -140.94029   -141.79115     51.83129   -278.26315    5292.7616 
  474000    -140.6819   -141.70885    62.557796     -415.281    5295.8771 
  475000    -140.7323   -141.67029    57.138963    165.87503    5272.3843 
  476000   -140.69884   -141.64726     57.77395   -343.04088    5299.9626 
  477000   -140.84949   -141.71432    52.682207    376.57602    5242.1546 
  478000   -140.73634   -141.62355    54.045478   -296.79534    5281.8365 
  479000    -140.6571   -141.65873    61.015111    332.69301    5257.9252 
  480000   -140.79389   -141.77612    59.833399   -421.69194     5307.248 
  481000   -140.90857   -141.74294    50.826348    479.24966    5261.0843 
  482000   -140.83128   -141.72919    54.697097    192.11139     5268.439 
  483000   -140.81125   -141.75914    57.741894   -110.54571     5285.677 
  484000   -140.64727   -141.74508    66.874155   -129.55845    5294.5497 
  485000    -140.7938   -141.74192    57.755744      20.9256    5291.8882 
  486000   -140.85791    -141.7864    56.560051   -25.023981    5279.9221 
  487000   -140.61078   -141.72075    67.615208   -89.049843    5283.7781 
  488000   -140.77236   -141.77332    60.974609    118.18541    5267.6989 
  489000   -140.84377   -141.72202    53.499782   -461.26476    5299.4758 
  490000   -140.57377   -141.62858     64.25455    370.27846    5264.4296 
  491000   -140.84649   -141.69384    51.617422   -185.12446    5287.4283 
  492000   -140.81236   -141.75843    57.630955    437.42743    5266.5918 
  493000   -140.63885   -141.58393    57.570607     152.8008    5277.6772 
  494000   -140.68063   -141.76247    65.901756    662.63459    5238.7933 
  495000   -140.82674   -141.79338    58.883655   -725.87448    5330.2001 
  496000   -140.81571   -141.68849    53.166121   -360.54529    5313.5941 
  497000    -140.6413   -141.67543    62.994708    188.12172    5283.8384 
  498000   -140.69274   -141.70508    61.668129   -234.68947    5300.5723 
  499000   -140.96921    -141.8188    51.753766    321.66392    5261.0504 
  500000    -140.7323   -141.70467    59.232596    -466.2111    5304.7965 
  501000   -140.66982   -141.69125    62.221284    445.79644    5256.0575 
  502000   -140.85681   -141.83578    59.635383   -114.99692    5286.6407 
  503000    -140.7375   -141.64019    54.988001    219.21961    5270.6289 
  504000   -140.65529   -141.70781    64.115268   -675.30262    5317.9363 
  505000   -140.69375   -141.75629    64.725171   -55.810303     5278.728 
  506000   -140.80942   -141.70853    54.769989    214.36345    5265.7727 
  507000   -140.77608   -141.72325     57.69783    145.19316    5278.4039 
  508000    -140.5671   -141.62212    64.268004   -155.78105    5302.1156 
  509000   -140.66264   -141.71458      64.0803    250.49673    5275.4291 
  510000   -140.73994   -141.69008    57.878967   -1350.7112    5354.1593 
  511000    -140.4689   -141.56845    66.980223    372.79541    5245.4052 
  512000   -140.79707   -141.73612     57.20368   -603.30904    5308.3019 
  513000    -140.8571   -141.85901    61.032185   -55.717274    5288.7759 
  514000   -140.59149   -141.62931    63.219391    435.40807    5264.8546 
  515000   -140.64486   -141.57112    56.423774    191.11914    5278.6457 
  516000   -140.61256   -141.73222    68.205626   -149.60034    5292.8481 
  517000   -140.64122   -141.68936    63.848598    95.155194    5269.0988 
  518000   -140.78691   -141.70688    56.040599    212.80708    5254.5676 
  519000   -140.55494   -141.59643    63.443592     312.1375    5252.8981 
  520000   -140.55714   -141.68601    68.766476    163.85948    5270.1637 
  521000   -140.71455   -141.71351      60.8526    268.17617    5265.5197 
  522000   -140.73125   -141.65693    56.388698    262.16382    5259.5405 
  523000   -140.69388    -141.7617    65.047747   -714.27798    5314.9576 
  524000   -140.63623   -141.66062    62.401927    294.28386    5252.0133 
  525000   -140.74857   -141.70679    58.371039    480.50136    5255.7409 
  526000   -140.47563   -141.57526    66.985142    487.29703    5249.7041 
  527000   -140.46236   -141.50414    63.461303    79.909743    5277.4362 
  528000   -140.46453   -141.52271    64.460444    175.29039    5271.2126 
  529000   -140.60186    -141.6408    63.288233   -223.80964    5299.0856 
  530000    -140.6885   -141.59339    55.122782    -128.1011    5298.2757 
  531000   -140.58735   -141.63556    63.853257     694.8237    5244.3507 
  532000   -140.71734   -141.74638     62.68478   -105.19921    5287.7641 
  533000   -140.56451   -141.55843    60.545999    552.00671    5250.7199 
  534000   -140.65009   -141.78323    69.026925    5.9527675    5277.5816 
  535000   -140.69698   -141.67579    59.625539    323.87251    5264.1118 
  536000   -140.54572   -141.57456    62.672898   -217.22397    5308.8631 
  537000   -140.77184   -141.78106    61.477696    78.566625     5274.832 
  538000   -140.60869   -141.56096    58.008425   -85.506013    5263.8099 
  539000   -140.58778   -141.65494    65.006835   -59.018443    5290.8986 
  540000   -140.58629   -141.64253    64.342514   -441.47601    5308.6992 
  541000   -140.63156   -141.62244    60.360361    459.27297    5259.9607 
  542000   -140.44373   -141.67088    74.752902    28.595306    5272.8092 
  543000   -140.59067   -141.61572    62.442255    83.829863    5271.3799 
  544000   -140.68538   -141.55372    52.895903   -767.51212     5324.147 
  545000   -140.45292   -141.53795    66.095661   -373.39536    5295.2342 
  546000   -140.55493   -141.64973    66.690477   -239.76701    5300.0662 
  547000   -140.71386   -141.68984    59.452791   -523.89297    5309.7447 
  548000   -140.42799   -141.51824    66.413955    620.56016    5246.6036 
  549000   -140.62472   -141.69169    64.995636    703.99748    5250.4356 
  550000   -140.51609   -141.55416    63.235145    273.14515    5256.6795 
  551000   -140.51188   -141.53169    62.122448   -668.64684    5322.6694 
  552000   -140.58102   -141.68897     67.49184    423.54717    5259.8899 
  553000   -140.59438   -141.68845    66.646766   -30.600331    5279.2665 
  554000   -140.46586   -141.44423    59.598563   -221.30439    5290.5184 
  555000   -140.72212   -141.82296     67.05925    261.64576    5257.8884 
  556000   -140.60475   -141.62524    62.164598    473.96656    5256.4042 
  557000   -140.54192   -141.60606    64.823197   -1056.8424    5334.4066 
  558000   -140.53562   -141.65767    68.351227   -143.37454    5301.1754 
  559000   -140.69828   -141.57476      53.3917    4.1455564    5261.5794 
  560000   -140.37288   -141.44345    65.215342    114.44963    5257.8102 
  561000   -140.52738   -141.69899    71.369564   -364.16166    5310.7341 
  562000   -140.51781    -141.5978    65.789151   -202.77633    5306.7351 
  563000    -140.6108   -141.60032    60.277402   -326.86097     5300.408 
  564000   -140.56129   -141.68483    68.441595   -15.275104    5291.2907 
  565000   -140.53075   -141.64517    67.885731   -135.80479    5298.0033 
  566000    -140.7025   -141.62207    56.016541   -105.70127    5285.2104 
  567000   -140.41162   -141.51017    66.919524   -18.165625    5277.2839 
  568000   -140.63496   -141.57728    57.402437   -168.30808    5292.5764 
  569000   -140.56326   -141.67884    67.956547   -76.331393    5304.4888 
  570000   -140.46842   -141.49802    62.719017    12.398128    5260.4994 
  571000   -140.47896   -141.48122    61.053389   -74.332428    5283.9245 
  572000   -140.44583   -141.60237    70.451892    105.35279    5285.5575 
  573000    -140.4739   -141.59724    68.429527    37.961334    5281.9339 
  574000   -140.51986   -141.61926    66.970828    21.498969    5273.2308 
  575000   -140.63607   -141.63286    60.720729   -375.17203    5303.3635 
  576000     -140.295   -141.49414    73.046754   -166.57452    5303.4208 
  577000   -140.55009    -141.6097    64.547058    41.722227    5287.8725 
  578000   -140.44602   -141.44923    61.111543   -15.457944    5285.0623 
  579000   -140.55697   -141.68404    68.656765   -196.86567    5312.7366 
  580000   -140.45592   -141.48579    62.735177   -34.849355    5281.9484 
  581000   -140.30276   -141.41553    67.786081   -143.51879    5286.8073 
  582000   -140.27703   -141.38717    67.625519   -596.21126    5323.9701 
  583000   -140.48731   -141.57485    66.248791    263.92003    5264.8888 
  584000   -140.50632   -141.49933    60.490233    160.61112    5282.5206 
  585000   -140.19521   -141.44909    76.381231   -670.12203    5303.4727 
  586000   -140.49132   -141.55907    65.043404    217.64508    5258.8123 
  587000   -140.45458   -141.58847    69.072316    307.79334    5269.7913 
  588000   -140.38469   -141.49468    67.616462    76.420671    5270.7343 
  589000   -140.39416   -141.48124    66.220235    548.76473    5250.1557 
  590000     -140.446    -141.5466    67.043814     554.6114    5240.9251 
  591000   -140.29104   -141.36641    65.507394   -142.49403    5295.4765 
  592000    -140.3704    -141.4574    66.215989    228.63047    5272.5038 
  593000   -140.19919   -141.30725    67.498243      934.912    5220.2369 
  594000   -140.24013   -141.37623    69.206818    886.01418     5224.925 
  595000   -140.43665   -141.47278    63.117319    130.59727    5260.1147 
  596000   -140.22932   -141.41994    72.528064    -3.582739    5268.0752 
  597000   -140.12747   -141.28658    70.608428    210.36177    5265.4178 
  598000   -140.25676   -141.30365    63.772533   -444.62951    5314.1659 
  599000   -140.29249   -141.46397    71.362124   -44.524677    5268.8027 
  600000   -140.13574   -141.27628    69.477289     434.7056    5258.4908 
  601000   -140.04034   -141.19866    70.560524   -304.56375    5311.6669 
  602000   -140.19883   -141.31024    67.702907   -265.95079    5296.8536 
  603000   -140.30061   -141.30638    61.267187   -245.96679    5281.2709 
  604000   -140.28115   -141.37362    66.548872   -129.86949     5282.938 
  605000   -139.98308   -141.13476    70.156048   -840.62515    5336.4618 
  606000   -140.22981   -141.38709    70.496884   -204.17093    5299.0617 
  607000   -140.30671   -141.46313    70.444729     306.1486    5279.4733 
  608000   -140.24906   -141.29552    63.746345   -59.387374    5298.8849 
  609000   -140.24688    -141.3779    68.897022   -323.85346    5308.1063 
  610000   -140.43041   -141.45989    62.711663   -671.33181    5330.7562 
  611000   -140.03859   -141.35278    80.054883    -242.5324    5313.2112 
  612000   -140.24354   -141.30791    64.836682   -40.370274    5298.0084 
  613000   -140.05864   -141.31792    76.710117   -59.925497    5297.4015 
  614000   -140.41443   -141.43312    62.054562    317.83504    5262.4803 
  615000   -140.31633   -141.36656    63.976017   -638.12371    5315.1497 
  616000    -140.1204   -141.35357    75.119627    280.07394    5259.4753 
  617000   -140.32027   -141.47098    70.096719     591.8738     5234.378 
  618000   -140.55897   -141.57359    61.806131   -655.12281    5314.0192 
  619000   -140.37636   -141.51641     69.44682    164.64325    5276.2495 
  620000   -140.36974   -141.62728     76.60457   -311.64798    5281.5856 
  621000   -140.38866   -141.52004    68.918902    766.36945    5248.6803 
  622000   -140.56314   -141.56778    61.198436    601.99278    5256.5717 
  623000   -140.23242   -141.45722    74.609567   -502.15763     5317.125 
  624000   -140.17307   -141.37428    73.172975   -418.19543    5301.6015 
  625000   -140.50145    -141.5464    63.654282    693.14242    5238.8119 
  626000   -140.27654   -141.46816    72.589267   -274.01236     5300.292 
  627000   -140.37986   -141.62983    76.143303    160.83671    5269.2309 
  628000   -140.36197    -141.4182     64.34103    613.61848    5232.2031 
  629000   -140.33865   -141.46272    68.473934   -473.47931    5315.0721 
  630000   -140.29299   -141.47274    71.865437    49.956545    5281.4704 
  631000   -140.26914   -141.38952     68.24865    6.4802879    5266.6363 
  632000   -139.98941   -141.37245    84.249421    -176.9425    5295.1986 
  633000   -140.46152   -141.49915    63.208043   -365.34192    5298.8832 
  634000   -140.42552   -141.54857    68.411782   -58.258946    5284.3866 
  635000   -140.17623   -141.40783    75.024695    25.284198    5282.3018 
  636000   -140.53324   -141.56286    62.720348    458.77722    5258.0242 
  637000   -140.43516   -141.51837     65.98493   -1055.0333    5354.4723 
  638000   -140.32456   -141.55076    74.695394    21.997116    5282.0743 
  639000   -140.35862   -141.50393    69.767609   -237.66147    5300.7869 
  640000   -140.28351   -141.40903    68.562489   -744.53908    5323.9707 
  641000   -140.12498   -141.47331    82.135063    290.75221    5270.3207 
  642000   -140.43553    -141.5789    69.649704    341.16014    5246.4314 
  643000   -140.28682   -141.42541    69.358491    54.974728    5269.9288 
  644000   -140.33879    -141.5168    71.759937    264.05373     5267.798 
  645000   -140.39959   -141.45031    64.005412   -432.77317    5305.0404 
  646000    -140.3681   -141.49377    68.571284   -576.31714    5307.8226 
  647000   -140.12945   -141.41152    78.098516   -461.63138    5306.6561 
  648000   -140.28965   -141.49952    73.700202   -714.01854    5325.1626 
  649000   -140.06836   -141.36101    78.742838   -197.56212    5296.2223 
  650000   -140.28804   -141.48873    73.141623    135.91746    5269.1866 
  651000   -140.45039    -141.4949     63.62763    422.14587    5257.5113 
  652000    -140.2397   -141.41321    71.485521   -384.04681     5305.794 
  653000   -140.16173   -141.41619    76.416252   -808.39866    5327.5356 
  654000    -140.0143   -141.25525    75.593876   -486.71137      5328.69 
  655000   -140.34787    -141.4692    68.306771     186.4472    5265.3468 
  656000   -140.24203   -141.36495     68.40392    990.67651    5223.7469 
  657000   -140.23842    -141.5023    76.990406    80.317448    5273.2817 
  658000   -140.12218   -141.27352    70.135312   -552.30401    5313.1358 
  659000   -140.02018   -141.24583     74.66166   -1032.6594    5355.8871 
  660000   -140.15964   -141.44197    78.114592   -78.610152    5281.2143 
  661000   -140.13453   -141.36117    74.722135    220.47174    5252.3283 
  662000   -140.24933   -141.38695    69.299046    601.05015    5228.4287 
  663000   -140.27628   -141.45534    71.823417   -38.929287    5271.2238 
  664000   -140.28641   -141.47035    72.120549   -451.67873    5317.2221 
  665000   -140.20161     -141.345    69.650853   -377.48936    5324.5973 
  666000   -140.22743   -141.45909    75.027723   -157.06359    5282.5991 
  667000   -140.27456    -141.4689    72.754464   -107.79766    5279.2889 
  668000   -140.14277   -141.28702    69.703652   -432.60251    5301.9258 
  669000   -140.07967    -141.3923    79.960201   -534.67499    5308.4011 
  670000   -140.46552   -141.58659    68.291192    343.61292    5256.6235 
  671000   -140.05651   -141.39031    81.249704    46.471077    5278.9852 
  672000   -140.01521   -141.32177     79.59067     658.3025    5248.7326 
  673000   -140.17293   -141.35246    71.852514    -20.06981    5284.8761 
  674000   -140.27967   -141.60761    80.892897    100.04632    5272.1803 
  675000     -140.186   -141.17876    60.475397    365.06217    5263.6017 
  676000   -140.26161   -141.54908    78.427419    28.558987    5285.2719 
  677000   -140.16955   -141.27241    67.181633   -30.235707    5285.4851 
  678000   -140.38514   -141.66851     78.17784    406.89498    5267.9644 
  679000   -140.43143   -141.56839    69.258906   -285.97351    5285.2736 
  680000    -140.0904   -141.35074    76.775167   -356.19006    5299.4572 
  681000   -139.89706   -141.27124    83.709373    595.50631     5242.737 
  682000   -140.42911   -141.54825    68.173675   -331.95277    5308.1292 
  683000   -139.98681   -141.23368    75.954382    139.76761    5264.1304 
  684000   -139.96911   -141.20204    75.104965    229.51591    5269.6109 
  685000   -140.43211   -141.62387    72.597103   -221.54435     5303.268 
  686000    -140.3258   -141.56335    75.387174   -175.39309    5293.1919 
  687000   -140.13687    -141.4748    81.501446   -323.05811    5307.1868 
  688000   -140.07153   -141.26684    72.813995   -525.05341    5309.7526 
  689000   -140.27868   -141.40966    68.894893   -177.11091    5298.8389 
  690000   -140.30415   -141.51663    73.859513    537.23851    5265.5453 
  691000   -139.94886   -141.19442    75.874652    207.37122    5273.7698 
  692000   -139.93228   -141.27117    81.560213    5.3048337    5276.8323 
  693000     -140.159    -141.3804    74.402655   -644.92616     5318.825 
  694000   -140.18896   -141.37269    72.107689   -131.72804     5298.233 
  695000    -139.9037   -141.38507     90.23941    53.297638    5280.7945 
  696000   -140.09735   -141.38006    78.137471   -945.29076    5344.2176 
  697000    -140.3711   -141.45297     65.90337    346.88201    5267.1701 
  698000   -140.00392   -141.31012    79.568658    271.61422    5268.0072 
  699000   -139.90248   -141.20749     79.49568   -143.41593    5289.3792 
  700000   -140.16707   -141.28741    68.246659   -36.765507    5288.7436 
  701000   -140.04115   -141.26428    74.508102    425.95168    5238.5575 
  702000   -139.91326   -141.31849    85.601594    402.33134    5248.7553 
  703000   -139.78128   -141.09194    79.840194    197.18783    5262.0426 
  704000   -140.11842   -141.44858    81.027696   -715.71869    5316.3659 
  705000   -139.88765   -141.10137    73.934964   -94.283317    5277.2535 
  706000   -139.84812   -141.13285    78.260378    216.84514    5261.5765 
  707000   -140.19498   -141.35689    70.778534    -288.3547    5304.8003 
  708000   -140.08623   -141.24418    70.537437    136.90707    5256.5193 
  709000   -139.92313   -141.28995    83.261596    728.66319       5232.6 
  710000   -139.75794   -140.95381    72.847929   -888.58535    5330.5128 
  711000   -140.06638   -141.27155    73.414255   -241.21402    5287.5106 
  712000   -140.22535    -141.4849    76.726573    -340.1804    5296.3449 
  713000   -139.88529   -141.13593    76.183844    -251.6076    5290.3451 
  714000   -139.99516   -141.32853    81.223716   -174.34659    5281.5635 
  715000   -140.20494   -141.37082    71.020448    545.80875    5245.4866 
  716000   -140.39999   -141.52309    68.414836   -800.45807    5317.9379 
  717000   -139.90077   -141.15499    76.401951   -125.55959    5279.5717 
  718000   -139.90664   -141.19217    78.309653   -424.64281    5317.9207 
  719000   -140.13039   -141.53415    85.511631    1095.3166    5237.4976 
  720000   -139.90638    -141.3371    87.154017   -180.17616      5301.92 
  721000    -140.2727   -141.51031    75.390361   -221.00801    5288.3395 
  722000   -140.03018   -141.30219    77.486275    173.06037    5287.4843 
  723000   -140.10755    -141.3071    73.071472   -73.939591    5284.9507 
  724000   -140.05361   -141.19763     69.68864   -164.10753    5290.8099 
  725000   -139.80175   -141.12681    80.717179    344.80101    5279.9025 
  726000   -140.02238   -141.26481    75.683603    202.73421    5273.2119 
  727000   -139.86083   -141.13082    77.362516   -56.798453    5266.0765 
  728000    -139.8952   -141.28584    84.712216   -337.24994    5296.9553 
  729000   -140.05966   -141.30378    75.787135   -155.70994    5279.9003 
  730000   -139.81939   -141.12142     79.31442    -240.0867     5295.809 
  731000   -140.05754   -141.36214    79.470961   -657.52153    5320.5619 
  732000   -140.08196   -141.23663    70.337955   -666.96915    5311.5513 
  733000    -139.9395   -141.28181    81.767906   -484.59594    5310.4406 
  734000   -140.16798   -141.37035    73.244004     246.2669    5266.0524 
  735000   -140.08992    -141.4031    79.994225    515.59827    5250.7981 
  736000   -139.94236   -141.34625    85.518909   -567.37455    5308.9431 
  737000   -140.18264   -141.30355    68.281396   -721.72009    5329.4563 
  738000   -139.88515   -141.22205    81.438381    96.832525    5264.3595 
  739000   -140.15899   -141.30325    69.703925    125.96381    5247.2701 
  740000   -140.29492   -141.53545    75.568367   -139.81602    5294.7361 
  741000   -140.05319   -141.42518     83.57616    520.86967    5252.8472 
  742000   -139.89258   -141.19711    79.466725    652.61902    5239.6755 
  743000   -140.07344   -141.42294    82.206368   -86.614467    5289.6422 
  744000   -140.09454   -141.47159    83.884621    378.86819    5253.9514 
  745000   -139.96298   -141.21465    76.246741   -474.29936    5307.3067 
  746000   -139.90206   -141.29435    84.812734   -435.03249    5302.7701 
  747000   -140.27612   -141.52028     75.78903   -212.86954    5293.3743 
  748000   -140.13619   -141.38628    76.150991    51.588242    5282.6797 
  749000   -139.74012   -141.17875    87.635393    464.82451    5252.4692 
  750000   -140.16086   -141.36986    73.647395   -878.72421    5336.0944 
  751000   -139.88748   -141.23749    82.237211   -227.32909     5298.484 
  752000   -139.85466   -141.19119     81.41635    473.24751    5243.4489 
  753000    -140.0569   -141.24313     72.26054    64.353057    5276.1111 
  754000   -139.95052   -141.25916    79.717514   -75.895856    5298.0504 
  755000   -140.11032   -141.33587    74.655606   -256.00408    5293.7337 
  756000   -139.97719   -141.28387    79.597866    634.95826    5241.3735 
  757000   -140.16449   -141.45002    78.308938    549.16638    5245.2141 
  758000   -139.84335   -141.31283    89.514744   -263.05482    5300.4509 
  759000   -139.84629   -141.19219     81.98639    504.67079    5240.9328 
  760000   -139.96037   -141.36278    85.429259    973.03589    5222.0901 
  761000   -140.19028   -141.39821    73.581986    208.15643    5281.1291 
  762000   -139.71431   -141.13654    86.636704    85.117775    5288.9665 
  763000   -140.02413   -141.28066    76.542579    913.44908    5236.2194 
  764000   -140.00256   -141.32656    80.652678     626.6059    5242.8217 
  765000   -139.89953   -141.30492    85.611058    425.50767    5252.3955 
  766000   -139.83668   -141.10353    77.171616    89.711857     5277.849 
  767000   -140.04045   -141.39018    82.220157   -833.26584    5344.9973 
  768000   -139.97784   -141.35805    84.077088     68.13872    5281.4305 
  769000   -140.03446   -141.20591    71.360157   -83.090926    5295.0619 
  770000   -140.01892    -141.2854    77.149088   -253.83395    5292.2408 
  771000    -140.0016   -141.21569    73.957727   -150.13796    5278.5299 
  772000   -139.86643   -141.16758    79.260915   -572.97147    5309.4773 
  773000   -139.67794   -141.08198    85.528464   -245.10237    5280.4796 
  774000   -139.79787   -141.15554    82.704019   -235.39314    5280.5769 
  775000    -139.7903    -141.0624    77.491382    -913.0757    5333.1875 
  776000   -139.86989   -141.27507    85.597938     108.6931    5262.1983 
  777000    -139.9113   -141.03455    68.424341    302.53852    5230.0718 
  778000   -140.07638   -141.35464    77.866578   -363.33176    5306.6548 
  779000   -139.51737   -140.98421    89.353787   -72.403024    5280.6552 
  780000   -139.82444   -141.23753     86.07972   -390.50228    5316.4782 
  781000   -139.89299   -141.18761     78.86347    223.87515    5260.0868 
  782000   -139.94925   -141.27635     80.84211    318.01988     5265.505 
  783000     -139.894   -141.23869    81.913567    231.10269    5268.6866 
  784000   -139.87673   -141.26147    84.352618   -334.32001    5322.0586 
  785000   -139.79057   -141.15435    83.075749   -661.09237    5313.1516 
  786000   -139.81668   -141.02328    73.500912   -400.60316    5301.6941 
  787000   -139.88655    -141.2162    80.997375   -479.36111    5315.6666 
  788000   -139.77252   -141.29861    92.963481    31.594268    5280.0166 
  789000   -139.67354   -141.03457     82.90867   -501.00949    5311.3766 
  790000   -139.86232   -141.22494    83.005419    -147.7459    5307.2936 
  791000   -139.81561   -141.35397    93.710646    -190.8351    5294.4305 
  792000   -140.12231   -141.28441    70.790706   -371.69038    5296.9938 
  793000   -139.91275   -141.33431    86.595421    332.77776    5262.3709 
  794000   -139.76853   -141.30557    93.630554   -675.27708    5323.3293 
  795000   -140.00572   -141.31522    79.769117    669.27107    5251.1778 
  796000   -139.80795    -141.2451    87.545418    284.23723    5261.2038 
  797000   -139.85295   -141.32735     89.81503    340.26942    5270.1167 
  798000   -139.80456   -141.19008    84.400229   -177.77437    5288.8054 
  799000   -139.84886   -141.21827    83.418802   -148.51889    5287.4952 
  800000    -139.8922   -141.22075    80.929945    -31.36862    5264.2304 
  801000   -139.43993   -141.05013    98.087138    240.88269    5265.2136 
  802000   -139.77162   -141.08063    79.739731    801.19359    5232.5087 
  803000    -139.7533   -140.91884    71.000003   -32.189145    5290.6556 
  804000   -139.58994   -140.98613    85.050249    -143.6147    5287.5039 
  805000   -139.75317   -141.14134    84.561828    63.770984    5268.8534 
  806000   -139.80977   -141.12675    80.225018    982.98816    5222.5508 
  807000   -139.49934   -141.09805    97.387353    -571.5759    5317.9787 
  808000   -139.86707   -141.20223    81.332559    594.84632    5244.8858 
  809000   -139.90505   -141.29137    84.449284    263.19909    5284.5909 
  810000   -139.64478   -141.04757    85.452495   -470.70517    5335.9007 
  811000   -139.86584   -141.09359    74.789774    143.92626    5280.2241 
  812000   -139.66405   -141.07502    85.950853    246.05214    5259.9678 
  813000   -139.68467   -141.11853     87.34514    116.53597    5257.2809 
  814000   -139.62884   -140.90459    77.713365   -412.53049    5294.6834 
  815000   -139.52862    -140.9465    86.371644    347.73139    5265.0489 
  816000   -139.60199   -141.13789    93.560963    408.56309    5274.5829 
  817000   -139.64747   -141.26318    98.422983    618.74029     5246.765 
  818000   -139.79416   -141.08728    78.771967     168.1783    5279.9276 
  819000   -139.74328   -141.12733    84.310789   -268.62039    5309.6181 
  820000   -139.60562   -141.04681    87.791169   -497.15994    5316.4181 
  821000    -139.7963   -141.23831      87.8417   -373.88051    5299.9624 
  822000   -139.77719   -141.11308    81.376741   -253.10387    5282.5094 
  823000    -139.5168   -140.96475    88.203439    465.75045    5247.1967 
  824000   -139.76414   -141.27545    92.062896    1247.2468    5212.6351 
  825000   -139.82669   -141.19775     83.51965    37.508596    5274.8361 
  826000   -139.42897   -140.88167    88.493174   -137.04128    5306.9278 
  827000   -139.78446   -141.09295    79.708352   -255.75431    5317.9635 
  828000   -139.64852   -141.14319    91.049557    95.753504    5289.8827 
  829000   -139.45635    -140.9726    92.363966   -30.837544    5281.3493 
  830000     -139.612   -140.93602    80.653968   -107.39853    5277.1695 
  831000   -139.82634    -141.0183    72.609876    118.51663    5265.4796 
  832000   -139.54424   -141.04901     91.66478    56.493943    5278.4951 
  833000   -139.55396   -141.04635    90.910969   -304.26238    5300.9061 
  834000   -139.50125   -140.80089    79.168704    47.726203    5277.4928 
  835000   -139.67683   -141.14195    89.249407   -127.16588    5297.4851 
  836000   -139.54099   -140.94257    85.379084    127.46849    5267.3003 
  837000   -139.71359    -141.1884    89.840053    812.14768    5239.4833 
  838000   -139.65443   -141.10784    88.536121    101.08621    5280.7637 
  839000      -139.79   -141.17256    84.219833    226.90847    5262.2839 
  840000   -139.75524   -141.21875    89.151003   -13.215674    5281.4775 
  841000   -139.62962   -141.13219    91.530365    157.65248     5293.443 
  842000   -139.96961   -141.21006    75.563336    701.27277    5251.9095 
  843000   -139.43963   -140.88934    88.310407   -520.73384     5313.855 
  844000   -139.77993   -141.21384    87.348176   -464.42353    5300.2401 
  845000   -139.61513   -141.06033    88.035747   -1041.3816    5340.9364 
  846000   -139.36627   -141.07948    104.36198    684.40443    5262.1949 
  847000   -139.40642   -141.04093    99.567743    73.778019    5276.7457 
  848000   -139.54549    -140.9885    87.902425   -15.750286    5271.7341 
  849000   -139.73361   -141.06347    81.009656   -379.57599    5308.2568 
  850000   -139.37666   -140.99011    98.285016    489.20118    5255.6933 
  851000   -139.47356   -140.86833    84.963885    -819.8947    5329.8615 
  852000    -139.7135   -141.08268    83.405027   -54.600417    5285.6267 
  853000   -139.55061   -141.04437    90.993439   -652.17468    5316.5529 
  854000   -139.44672   -140.96826    92.686073    1122.2411     5229.679 
  855000   -139.43604   -140.80485    83.382385    -519.1008    5336.1713 
  856000   -139.56865   -140.93809      83.4208    233.52547    5268.6558 
  857000   -139.45279    -141.0743    98.776394    133.15673     5260.773 
  858000   -139.57233   -140.98795    86.234011   -454.08664    5305.5042 
  859000   -139.54561   -140.90113    82.573028    98.562526    5272.7639 
  860000    -139.4126   -140.93664    92.838911    592.69037    5247.2576 
  861000   -139.60311   -141.03497    87.223358    262.28664    5266.9491 
  862000   -139.72887   -141.19568    89.352556   -70.403715    5290.9085 
  863000   -139.57403   -140.91172    81.487081   -485.66257    5314.8696 
  864000   -139.29245   -140.86574    95.838866    177.84085    5258.2428 
  865000   -139.84424   -141.24042    85.049698   -778.00571     5319.627 
  866000   -139.61577    -140.9299    80.051767   -158.05027    5281.3444 
  867000   -139.45785   -141.03141    95.855214   -442.37341    5300.3809 
  868000   -139.39545     -140.925    93.174146    271.65456    5260.6584 
  869000   -139.57662    -140.9849    85.787369   -23.176544     5280.722 
  870000   -139.81036   -141.15268     81.76864    380.90946    5249.2858 
  871000   -139.55241    -141.1436    96.929329    613.51523    5252.7696 
  872000    -139.3968   -140.89843    91.473616     51.65419    5282.4951 
  873000   -139.62933   -141.07519    88.076178    496.85297    5240.5981 
  874000   -139.48169   -141.16839    102.74675   -383.25668    5321.4488 
  875000   -139.46511   -140.83603    83.510925    -208.7134    5310.9809 
  876000   -139.43505   -141.01257    96.095946    69.600097    5294.1488 
  877000   -139.57325   -141.08058     91.82055    171.16326    5274.9171 
  878000   -139.65794   -140.89952    75.632496    -1131.392    5343.1177 
  879000   -139.46967   -140.95409    90.425114    232.88251    5257.5141 
  880000   -139.46168   -141.09591     99.55079   -278.03668    5290.6031 
  881000   -139.36133   -140.84065    90.113918   -687.50018     5321.356 
  882000   -139.65246   -140.87875    74.700375   -1296.5787    5365.5191 
  883000   -139.55735    -141.0926    93.521519   -664.27463    5329.7499 
  884000    -139.3436   -140.82812    90.431349    116.40089    5285.4036 
  885000   -139.55639   -141.14815    96.963647   -886.73413    5334.2408 
  886000   -139.34202   -140.80356    89.031449    14.315761    5269.4164 
  887000   -139.49339   -140.96963    89.926936    79.646648    5266.7083 
  888000   -139.16935   -140.96475    109.36871   -358.71971    5306.2248 
  889000   -139.51102   -140.92915    86.386962    322.77538    5271.9784 
  890000   -139.40881   -140.95118    93.954963       169.06    5270.2787 
  891000   -139.32815    -140.8979     95.62306    592.85613    5226.9077 
  892000   -139.63479   -141.09648    89.040167   -1032.9984    5349.9811 
  893000   -139.32164     -140.813    90.847828   -1006.4018    5350.4068 
  894000   -139.40231   -140.88625    90.395888   -316.76979     5309.584 
  895000   -139.81709   -141.06748    76.169295   -11.438673    5277.2757 
  896000   -139.39182   -140.89881    91.799644    260.32197    5267.6121 
  897000   -139.43553   -140.98374    94.310673   -293.64293    5309.4201 
  898000    -139.3579   -140.87837    92.621358    -140.8183    5294.2276 
  899000   -139.33316   -140.80282    89.525976   -498.09114     5314.018 
  900000   -139.24526   -140.83942    97.109718   -554.32745    5318.8871 
  901000   -139.70212   -140.99537     78.77949   -884.77727    5335.4191 
  902000   -139.43356   -140.86928    87.458742   -305.41609    5310.8065 
  903000   -139.12718   -140.75435    99.120973    662.89613     5230.711 
  904000   -139.79066   -141.18964    85.220173    50.991306    5273.4821 
  905000   -139.45014   -141.03514    96.552112    -231.5866     5287.364 
  906000   -139.25896   -140.92364    101.40558   -351.68131    5329.9196 
  907000   -139.33182    -140.8636    93.310073    53.817662    5291.1552 
  908000   -139.35491   -141.10547    106.63719    359.62236    5250.1825 
  909000   -139.51185   -140.92402     86.02424   -591.35329    5299.7303 
  910000   -139.35991   -140.90215    93.947237    860.97952    5242.2617 
  911000   -139.29752   -140.91047    98.254405   -315.35104    5301.1357 
  912000   -139.54617   -140.99182     88.06343    363.92321    5262.4893 
  913000   -139.70203   -141.20507    91.559111    132.78388    5271.0608 
  914000   -139.28988   -141.04288    106.78566    917.04948    5230.8408 
  915000   -139.37808   -140.91555    93.657032   -215.80385    5305.5272 
  916000   -139.50535   -140.89763    84.812144    388.18194    5251.6876 
  917000   -139.74022   -141.13173    84.765281    41.962204    5276.8903 
  918000   -138.91813   -140.48469    95.428411   -62.126443     5289.681 
  919000   -139.46348   -140.97686    92.189278    227.29556    5264.7036 
  920000   -139.28989   -140.94736    100.96692    244.49483    5267.5345 
  921000    -139.4187   -140.86697    88.222994   -7.2337793    5285.2453 
  922000   -139.16128   -140.76899    97.935136   -569.34119    5298.7944 
  923000   -139.39358   -140.86649    89.723646   -726.54373    5322.1472 
  924000   -139.44898   -140.95091     91.49181    378.03787    5264.1029 
  925000   -139.38278   -140.94567    95.204847    24.653914    5253.5757 
  926000   -138.98144   -140.62865    100.34168    820.38279    5217.7214 
  927000   -139.53492   -140.96038    86.832984    22.111537    5280.0452 
  928000   -139.29754   -141.00935    104.27647   -317.37113     5299.636 
  929000   -139.39794     -140.896    91.255985    409.30765    5263.1784 
  930000   -139.17787   -140.69737    92.561855   -28.069038    5292.5149 
  931000   -139.56343   -141.09939    93.564656    769.92472    5245.5974 
  932000   -139.74475   -141.13611    84.756251    155.66912    5293.2744 
  933000   -139.04932   -140.62567    96.024608   -583.47219    5313.9782 
  934000   -139.43271    -140.9274    91.050901    -6.021457    5279.3583 
  935000    -139.1675   -140.99339    111.22548     573.3956    5233.4446 
  936000    -139.5367   -140.97066    87.350776    824.82229    5245.2361 
  937000   -139.21304    -140.9124    103.51803    5.3807787     5271.369 
  938000   -139.27965   -140.76948    90.754352     -552.563    5313.8419 
  939000   -139.40928   -140.95388    94.091262   -53.120932    5295.1059 
  940000   -139.38695   -141.00399    98.503961   -169.09941    5290.6512 
  941000   -139.18176   -140.68765    91.733281      78.8383    5273.3052 
  942000   -139.33829   -140.88143    94.001832    112.89754    5264.9804 
  943000   -139.41257   -141.09641    102.57254   -183.68419    5286.8729 
  944000   -139.41502    -140.9477    93.364739    653.90052    5236.9633 
  945000   -139.21601   -140.66453    88.238204   -139.49787     5299.373 
  946000   -139.42426   -141.03242    97.962575   -130.67256    5296.2036 
  947000   -139.50978   -141.03476    92.895943   -169.20812    5290.0866 
  948000   -139.12628   -140.70114    95.934342    188.95498    5253.9043 
  949000   -139.38364   -140.92979     94.18499   -532.79159     5320.449 
  950000   -139.38617   -140.90169     92.31926   -156.00091    5301.3591 
  951000   -139.14679   -140.69647    94.400104   -765.52297    5327.1324 
  952000   -139.40207   -141.02007    98.562404    112.94255    5286.5244 
  953000   -139.15021   -140.65757    91.822903   -832.29244     5329.082 
  954000   -139.20016   -140.83665    99.688433   -1009.8211    5352.3286 
  955000    -139.5255   -141.06706    93.906013   -283.05321    5300.2006 
  956000   -139.62698   -141.01699    84.674164    448.49874    5244.5177 
  957000   -138.91148    -140.6845    108.00538    -49.74131    5279.0114 
  958000   -139.41756   -140.83642    86.431223    170.07324    5268.0095 
  959000   -139.52493   -140.97748    88.483792    -254.7602      5291.24 
  960000   -139.43259   -140.88861    88.695362   -372.75097    5287.6171 
  961000   -139.16654   -140.65317     90.55923   -820.82778    5339.1189 
  962000   -139.34671   -140.97361    99.104407    466.43117    5259.5855 
  963000   -139.32828   -140.91058    96.387672   -439.74248    5321.7027 
  964000   -139.33626   -140.88215     94.16955   -346.00287    5306.5558 
  965000   -139.36519   -140.93692    95.743486   -421.35337    5301.8994 
  966000   -139.06092   -140.79119    105.40152    84.781545    5284.7648 
  967000   -139.23968    -140.8422    97.619138    75.959243    5266.6554 
  968000   -139.16984   -140.72879     94.96537      483.812    5228.6232 
  969000   -139.46309   -140.99112    93.081774    255.18236    5266.8101 
  970000   -138.89137   -140.47757    96.624977    725.93247     5234.606 
  971000    -139.1425   -140.72801    96.583024   -208.25225    5307.1859 
  972000   -139.26211   -140.96847    103.94441    330.47193    5263.7178 
  973000   -139.44454    -140.8008    82.617985    315.32174    5259.3669 
  974000   -139.09493   -140.74829    100.71607    -400.9125    5315.5492 
  975000   -139.03511   -140.78436    106.55758   -239.94017    5291.8633 
  976000   -139.44079   -140.98901    94.311377    213.83959     5256.724 
  977000   -138.93597   -140.80438    113.81585     581.8281    5243.0187 
  978000   -139.11172    -140.7511    99.864661   -254.02444     5298.156 
  979000   -139.43762   -140.85892    86.580343   -94.614224    5303.3362 
  980000   -139.41575   -141.02679    98.137848     136.1181    5283.3288 
  981000   -139.35003   -140.95848    97.980485   -370.93012    5297.0445 
  982000    -139.2587   -140.96968    104.22623    730.04619    5246.0653 
  983000   -139.21133   -140.84648    99.606839   -466.61347    5311.2699 
  984000   -139.61219   -141.15827    94.181133    619.65037    5222.2841 
  985000   -139.23267    -140.9272    103.22422    420.04377    5272.2886 
  986000   -139.09337   -140.73077    99.744324    14.545662    5276.9383 
  987000   -139.20788   -140.76783    95.026382   -69.481105    5289.2982 
  988000   -139.45018   -141.07831    99.179111     1318.274     5201.503 
  989000   -138.96241    -140.6374    102.03348    639.19503    5242.9545 
  990000   -139.28482   -140.80277    92.467553   -473.86689    5331.3072 
  991000   -139.13681   -140.87698    106.00418    553.47386    5266.8003 
  992000    -138.9294   -140.69551    107.58431   -847.41395    5331.5529 
  993000   -139.25848    -140.9179    101.08483   -591.81216    5316.2876 
  994000   -139.11287   -140.75116    99.798215    252.51511    5268.0277 
  995000   -139.25546    -140.8715    98.442907    1.9289031    5286.4559 
  996000   -139.39051   -140.79734    85.698588   -504.75002    5305.9649 
  997000   -139.37955   -141.12618    106.39768   -352.26869    5301.3595 
  998000   -139.05889    -140.8076    106.52454    76.433578    5284.8043 
  999000   -139.34733   -140.82587    90.066787    42.368442    5276.9413 
 1000000   -139.15509   -140.75456    97.433252   -103.45867    5274.4167 
Loop time of 109.433 on 1 procs for 1000000 steps with 128 atoms

Performance: 78.952 ns/day, 0.304 hours/ns, 9138.017 timesteps/s
99.9% CPU use with 1 MPI tasks x no OpenMP threads

MPI task timing breakdown:
Section |  min time  |  avg time  |  max time  |%varavg| %total
---------------------------------------------------------------
Pair    | 83.115     | 83.115     | 83.115     |   0.0 | 75.95
Neigh   | 0.01189    | 0.01189    | 0.01189    |   0.0 |  0.01
Comm    | 3.7311     | 3.7311     | 3.7311     |   0.0 |  3.41
Output  | 0.47994    | 0.47994    | 0.47994    |   0.0 |  0.44
Modify  | 20.901     | 20.901     | 20.901     |   0.0 | 19.10
Other   |            | 1.194      |            |       |  1.09

Nlocal:        128.000 ave         128 max         128 min
Histogram: 1 0 0 0 0 0 0 0 0 0
Nghost:        1601.00 ave        1601 max        1601 min
Histogram: 1 0 0 0 0 0 0 0 0 0
Neighs:        10886.0 ave       10886 max       10886 min
Histogram: 1 0 0 0 0 0 0 0 0 0

Total # of neighbors = 10886
Ave neighs/atom = 85.046875
Neighbor list builds = 56
Dangerous builds = 1
unfix 1
undump 3
undump 4
fix 1 all nvt temp 100 100 0.01
fix frdf all ave/time 100 100 10000 c_rdf[*] file TEMP/tmp_warm.rdf mode vector
dump 3 all xyz 1000 TEMP/dump_warm_2.xyz
dump 4 all custom 1000 TEMP/dump_warm_2.positions_and_forces id x y z fx fy fz
run 100000
WARNING: Fix recenter should come after all other integration fixes (src/fix_recenter.cpp:132)
Per MPI rank memory allocation (min/avg/max) = 12.31 | 12.31 | 12.31 Mbytes
Step TotEng PotEng Temp Press Volume 
 1000000   -139.15509   -140.75456    97.433252   -103.45867    5274.4167 
 1001000   -139.15383   -140.79662    100.07222   -55.418885    5274.4167 
 1002000   -139.23209   -140.93802    103.91813    1.7525644    5274.4167 
 1003000   -139.10048   -140.69013    96.835274    388.89862    5274.4167 
 1004000   -139.18561   -140.83496    100.47146    311.31936    5274.4167 
 1005000   -139.28645   -140.91907    99.452699   -118.83025    5274.4167 
 1006000   -139.25828   -140.91033    100.63663    -29.25946    5274.4167 
 1007000   -139.19378   -140.90769    104.40445    251.21558    5274.4167 
 1008000   -139.17303   -140.95775    108.71818    202.70961    5274.4167 
 1009000   -139.13138   -140.71806    96.653856    359.29704    5274.4167 
 1010000   -139.34534   -140.89037    94.117263     208.3941    5274.4167 
 1011000   -139.02536   -140.76163    105.76634    128.42735    5274.4167 
[...]
11151000    -135.7946    -136.3164    31.785655   -6487.2449    6746.5353 
11152000   -135.61431   -136.15819    33.130835   -6296.1286    6746.5353 
11153000   -135.82465   -136.35372    32.228447   -6221.1171    6746.5353 
11154000     -135.818   -136.32129    30.658337   -6505.3445    6746.5353 
11155000    -135.7428   -136.27215    32.245747   -6503.7135    6746.5353 
11156000   -135.71477   -136.26859    33.736523   -6155.8534    6746.5353 
11157000   -135.80077    -136.2938    30.033717   -6110.3763    6746.5353 
11158000   -135.80948    -136.3147    30.775887   -6250.5464    6746.5353 
11159000   -135.81001    -136.3385    32.193666   -6369.1756    6746.5353 
11160000    -135.8217   -136.32259    30.512162   -6260.7833    6746.5353 
11161000   -135.86666    -136.3044     26.66534   -6320.9149    6746.5353 
11162000   -135.71593   -136.27093    33.808956   -6325.5454    6746.5353 
11163000   -135.72698   -136.28195    33.806883   -6282.8433    6746.5353 
11164000   -135.85986   -136.33663    29.043324   -6385.0636    6746.5353 
11165000   -135.76953    -136.2472    29.098029   -6276.6278    6746.5353 
11166000    -135.7442   -136.29916    33.805922   -6420.2147    6746.5353 
11167000   -135.86933   -136.33084    28.113554   -6285.5649    6746.5353 
11168000   -135.70313   -136.25655    33.712171   -6097.8448    6746.5353 
11169000    -135.8947   -136.35028    27.752327   -6093.3787    6746.5353 
11170000   -135.72564   -136.25039    31.965851   -5975.8729    6746.5353 
11171000   -135.79765   -136.37637    35.253064   -6368.5566    6746.5353 
11172000   -135.85907   -136.32973    28.670728   -6440.0878    6746.5353 
11173000   -135.75877   -136.33712     35.23072   -6149.7091    6746.5353 
11174000   -135.85629   -136.36354    30.899522   -6251.8357    6746.5353 
11175000   -135.88458   -136.31939     26.48692   -6373.1616    6746.5353 
11176000   -135.84306   -136.37113    32.168034   -6597.2406    6746.5353 
11177000   -135.74317   -136.31929    35.095148   -6560.7205    6746.5353 
11178000    -135.9269   -136.35874    26.305698   -6358.3688    6746.5353 
11179000   -135.74965   -136.31217     34.26632   -6179.8026    6746.5353 
11180000   -135.91616   -136.34788    26.298321   -6384.9185    6746.5353 
11181000   -135.77637   -136.30075     31.94285   -6443.2186    6746.5353 
11182000   -135.92384   -136.36517    26.884473   -6571.5992    6746.5353 
11183000   -135.91812   -136.35661    26.710553   -6380.9701    6746.5353 
11184000   -135.87754   -136.37729    30.442804   -6134.3233    6746.5353 
11185000    -135.7911   -136.31431    31.871872   -6454.0633    6746.5353 
11186000   -135.82411   -136.29398    28.622516   -6588.0446    6746.5353 
11187000   -135.85523   -136.27787    25.745144   -6239.7822    6746.5353 
11188000   -135.86152    -136.3776    31.437722   -6157.7449    6746.5353 
11189000   -135.87599   -136.31271     26.60337   -6268.1624    6746.5353 
11190000   -135.78543   -136.25919    28.859418    -6364.193    6746.5353 
11191000   -135.84127   -136.34673    30.790721   -6412.6003    6746.5353 
11192000   -135.84648   -136.30644    28.019319   -6228.8438    6746.5353 
11193000   -135.98881   -136.42631     26.65053    -6438.664    6746.5353 
11194000   -135.77596   -136.30445    32.193916   -6783.3439    6746.5353 
11195000   -135.87107   -136.33187     28.07024   -6889.4092    6746.5353 
11196000   -135.92596   -136.43315    30.895866   -6694.3299    6746.5353 
11197000   -135.95987   -136.38854    26.112897   -6818.3353    6746.5353 
11198000   -135.81891   -136.31889    30.457281   -6907.6808    6746.5353 
11199000    -135.9036   -136.36785    28.280443   -6628.7076    6746.5353 
11200000   -135.95218   -136.35365    24.456161   -6542.5569    6746.5353 
11201000   -135.87307   -136.36142    29.748297    -6897.142    6746.5353 
11202000   -135.93817   -136.39476    27.813765   -6881.6631    6746.5353 
11203000   -135.86236   -136.34194    29.214321   -6590.2556    6746.5353 
11204000   -135.99804   -136.42121    25.777555   -6703.7443    6746.5353 
11205000   -135.94347   -136.35155    24.858856   -6758.9568    6746.5353 
11206000   -135.89658   -136.37838    29.349509   -6632.8483    6746.5353 
11207000   -135.95121   -136.37384    25.745181   -6672.6148    6746.5353 
11208000   -135.98241   -136.38329    24.419801   -6674.3821    6746.5353 
11209000   -135.99181   -136.40111    24.933195   -6639.2797    6746.5353 
11210000   -135.97035   -136.42659    27.791886   -6708.4427    6746.5353 
11211000   -135.85922   -136.34744    29.740626   -6694.9509    6746.5353 
11212000   -135.90795   -136.38374    28.983189   -6780.4558    6746.5353 
11213000   -135.89292   -136.35016    27.853248   -6590.2119    6746.5353 
11214000   -136.01556   -136.38621    22.578938   -6594.8954    6746.5353 
11215000   -135.92653   -136.35037    25.818451   -6658.3911    6746.5353 
11216000   -135.98528   -136.41604    26.239837   -6527.1402    6746.5353 
11217000   -135.96691   -136.38892    25.707099   -6631.6412    6746.5353 
11218000   -135.97115   -136.39796    25.999649   -6549.8779    6746.5353 
11219000   -135.93511   -136.37873    27.023249   -6586.9173    6746.5353 
11220000   -135.95743   -136.36071    24.566637   -6592.3856    6746.5353 
11221000   -135.96095   -136.41771    27.823776   -6446.5608    6746.5353 
11222000   -135.94428   -136.36721    25.763146   -6620.1027    6746.5353 
11223000   -135.99668    -136.4735    29.046058   -6850.4246    6746.5353 
11224000   -135.92442   -136.36119     26.60681   -6996.0102    6746.5353 
11225000   -136.01048   -136.38601    22.875743    -6962.339    6746.5353 
11226000   -136.02837   -136.43843    24.978833   -6736.2165    6746.5353 
11227000   -135.94533    -136.4196    28.890194     -6578.01    6746.5353 
11228000   -136.01185   -136.40874    24.176808   -6666.5404    6746.5353 
11229000   -135.94382   -136.41819    28.896442   -6663.2618    6746.5353 
11230000   -135.95914   -136.35904    24.360246   -6671.4862    6746.5353 
11231000   -136.01235   -136.44874    26.583123   -6496.2314    6746.5353 
11232000   -136.04601   -136.42919    23.341383   -6688.1091    6746.5353 
11233000   -136.01586   -136.41792    24.492135   -6859.7483    6746.5353 
11234000   -135.94259   -136.39826    27.757901   -6908.0684    6746.5353 
11235000   -136.02152   -136.45347    26.312744   -6886.3032    6746.5353 
11236000   -136.01711   -136.40523    23.642724   -6862.8626    6746.5353 
11237000   -136.07107   -136.42323    21.452124   -6665.7715    6746.5353 
11238000    -136.0386   -136.43114    23.912069   -6530.6177    6746.5353 
11239000   -135.99916   -136.43426    26.504412   -6618.8604    6746.5353 
11240000   -136.05677   -136.46073    24.607296   -6692.9248    6746.5353 
11241000   -136.02215   -136.38282    21.970512   -6583.5327    6746.5353 
11242000   -136.02977   -136.45481    25.891554   -6348.0784    6746.5353 
11243000   -135.97986    -136.3913    25.063055   -6516.1396    6746.5353 
11244000    -136.0713   -136.44544    22.791001    -6785.437    6746.5353 
11245000   -135.97451   -136.44223    28.491652   -6797.3594    6746.5353 
11246000   -136.08956   -136.46643    22.957223   -6700.5179    6746.5353 
11247000   -135.96637   -136.38526    25.517096   -6641.0735    6746.5353 
11248000   -136.07853   -136.43192    21.527226   -6528.5586    6746.5353 
11249000    -136.0801   -136.46291    23.319738   -6674.3943    6746.5353 
11250000   -136.03985   -136.44808    24.867576   -6923.4658    6746.5353 
11251000   -136.06605   -136.42556    21.899787   -6797.2798    6746.5353 
11252000   -136.02314    -136.4332    24.979274   -6658.9574    6746.5353 
11253000   -136.05327   -136.44239    23.703526   -6790.4005    6746.5353 
11254000   -136.13251   -136.48527    21.488497   -6915.5922    6746.5353 
11255000   -136.03231   -136.43011    24.232273   -7119.1554    6746.5353 
11256000   -136.10307   -136.50095    24.237607   -6825.2384    6746.5353 
11257000   -136.12444   -136.46683    20.856506   -6763.8559    6746.5353 
11258000   -136.10161   -136.44287    20.788523   -6931.0095    6746.5353 
11259000   -136.12195   -136.48581    22.164783   -6720.0566    6746.5353 
11260000   -136.06406   -136.47506    25.036376   -6520.9846    6746.5353 
11261000   -136.09836   -136.45179    21.529636   -6693.0595    6746.5353 
11262000   -136.14259   -136.49969      21.7534   -6777.2546    6746.5353 
11263000   -136.04461   -136.44253     24.23966   -6851.0428    6746.5353 
11264000   -136.11073   -136.45127    20.744264   -6797.3116    6746.5353 
11265000   -136.08898   -136.46996    23.207604   -6517.8918    6746.5353 
11266000   -136.16639   -136.48241    19.251003   -6605.2321    6746.5353 
11267000   -136.13018   -136.48116    21.380127   -6784.2302    6746.5353 
11268000   -136.07887   -136.43699    21.815358   -6723.4698    6746.5353 
11269000   -136.15404   -136.50776    21.546863   -6626.5924    6746.5353 
11270000    -136.1276   -136.54274    25.288381   -6448.0443    6746.5353 
11271000   -136.09311   -136.45525    22.060449    -6567.188    6746.5353 
11272000   -136.14444   -136.46415    19.475555   -6640.0429    6746.5353 
11273000   -136.10203   -136.48908    23.577804   -6679.7773    6746.5353 
11274000   -136.11623   -136.46182    21.052375   -6660.0191    6746.5353 
11275000   -136.17222     -136.493    19.540825   -6698.2881    6746.5353 
11276000   -136.12418    -136.4937    22.509683   -6710.7863    6746.5353 
11277000   -136.23283   -136.53872    18.633237   -6602.7506    6746.5353 
11278000   -136.11985   -136.48946    22.515178   -6601.2558    6746.5353 
11279000   -136.11589   -136.44618    20.119595   -6712.5252    6746.5353 
11280000   -136.18738   -136.55685    22.506997   -6884.2868    6746.5353 
11281000   -136.12402   -136.49918    22.853331   -6895.0554    6746.5353 
11282000   -136.22053   -136.55894    20.614299   -6628.4463    6746.5353 
11283000   -136.11728   -136.46921    21.437988   -6631.7148    6746.5353 
11284000   -136.13429   -136.49986    22.269497   -6697.9627    6746.5353 
11285000   -136.16626   -136.49051    19.752216   -6611.7611    6746.5353 
11286000   -136.19315   -136.50217    18.824289   -6506.9828    6746.5353 
11287000   -136.12267   -136.48197    21.887173    -6613.557    6746.5353 
11288000   -136.19978   -136.55667    21.740077   -6613.2097    6746.5353 
11289000    -136.2062   -136.52853    19.634987   -6806.2265    6746.5353 
11290000   -136.24912    -136.5264    16.890902   -6712.0615    6746.5353 
11291000   -136.14729   -136.48949    20.845686   -6443.2601    6746.5353 
11292000   -136.25499   -136.53411    17.003024   -6414.4305    6746.5353 
11293000   -136.19617   -136.51322    19.313743   -6587.1338    6746.5353 
11294000   -136.17946   -136.50555    19.863599   -6747.7226    6746.5353 
11295000    -136.2411   -136.57048    20.064908   -6783.4137    6746.5353 
11296000   -136.23382   -136.52529    17.755349   -6750.2388    6746.5353 
11297000   -136.20214    -136.5101    18.759913   -6857.7139    6746.5353 
11298000   -136.17996   -136.55435      22.8064   -6863.5298    6746.5353 
11299000   -136.25098   -136.54197    17.726068   -6760.1304    6746.5353 
11300000   -136.18198    -136.5199    20.584443   -6790.9369    6746.5353 
11301000   -136.21193   -136.51795     18.64133   -6702.4208    6746.5353 
11302000   -136.20342   -136.51596    19.038888   -6835.1946    6746.5353 
11303000   -136.22414   -136.54711    19.674426   -6913.5496    6746.5353 
11304000   -136.23735   -136.52186    17.331487   -6585.8544    6746.5353 
11305000   -136.21475   -136.51518    18.301126   -6568.9761    6746.5353 
11306000   -136.21515   -136.52902    19.119433   -6574.6026    6746.5353 
11307000   -136.23369   -136.53396    18.291132   -6680.6115    6746.5353 
11308000   -136.22362   -136.52687    18.472878   -6814.9068    6746.5353 
11309000   -136.25251   -136.56604     19.09923   -6757.0188    6746.5353 
11310000   -136.20539   -136.49575     17.68795   -6697.5012    6746.5353 
11311000   -136.25038   -136.56949    19.439067   -6775.8275    6746.5353 
11312000   -136.30165   -136.59616    17.940307   -6830.0786    6746.5353 
11313000   -136.22075     -136.517    18.046206   -6736.0344    6746.5353 
11314000   -136.24754   -136.56162    19.132082   -6657.8413    6746.5353 
11315000   -136.27535   -136.54512    16.433741   -6569.9177    6746.5353 
11316000   -136.30608   -136.57892    16.620236   -6489.7627    6746.5353 
11317000   -136.24077   -136.56309    19.634277   -6761.7075    6746.5353 
11318000    -136.2739    -136.5598    17.416102   -6800.3574    6746.5353 
11319000   -136.26736   -136.54689    17.027867   -6768.5755    6746.5353 
11320000   -136.26345   -136.55045    17.482846   -6778.6757    6746.5353 
11321000    -136.3157   -136.59636    17.096838    -6796.426    6746.5353 
11322000   -136.22361   -136.51964    18.032997   -6627.3468    6746.5353 
11323000   -136.32385   -136.57634     15.38035   -6770.1922    6746.5353 
11324000   -136.32536     -136.585    15.816038   -6827.6986    6746.5353 
11325000    -136.2855    -136.5692    17.281972   -6708.4981    6746.5353 
11326000   -136.26996   -136.54597    16.813505   -6849.4877    6746.5353 
11327000   -136.29245   -136.57361    17.127531   -6821.5204    6746.5353 
11328000    -136.3333   -136.58316     15.22003   -6707.6559    6746.5353 
11329000   -136.28594   -136.54459    15.756028   -6752.2928    6746.5353 
11330000   -136.29616   -136.58046    17.318733   -6650.2668    6746.5353 
11331000   -136.33004   -136.59011    15.842585   -6609.1592    6746.5353 
11332000   -136.35186   -136.60115    15.186168   -6767.7754    6746.5353 
11333000   -136.33482   -136.58209    15.062259   -6897.9812    6746.5353 
11334000   -136.29443    -136.5734    16.993984    -6845.605    6746.5353 
11335000   -136.30299   -136.56392    15.894455   -6791.3972    6746.5353 
11336000   -136.35915   -136.61223    15.416708   -6702.6262    6746.5353 
11337000   -136.30701   -136.59528    17.560046   -6509.1699    6746.5353 
11338000   -136.31648   -136.56256    14.990054   -6570.1865    6746.5353 
11339000   -136.32875   -136.58924    15.868086   -6599.7433    6746.5353 
11340000   -136.32297   -136.61107    17.549824   -6645.8271    6746.5353 
11341000   -136.32034   -136.57391    15.446601   -6606.8469    6746.5353 
11342000   -136.37413    -136.6183     14.87389    -6564.041    6746.5353 
11343000   -136.33165   -136.62546    17.897597   -6555.5889    6746.5353 
11344000   -136.35202   -136.59012    14.503911   -6501.7107    6746.5353 
11345000   -136.35855   -136.60012    14.715715   -6521.0446    6746.5353 
11346000   -136.37065    -136.6243    15.451198   -6485.6217    6746.5353 
11347000   -136.36681   -136.59308     13.78359   -6426.3119    6746.5353 
11348000   -136.35179   -136.60547    15.453501   -6376.9616    6746.5353 
11349000   -136.39955   -136.62583    13.783617   -6479.0419    6746.5353 
11350000   -136.39992   -136.63526    14.335525   -6666.5318    6746.5353 
11351000   -136.35919   -136.57354     13.05739   -6657.6924    6746.5353 
11352000   -136.38723   -136.65625    16.387249    -6530.698    6746.5353 
11353000   -136.34879   -136.59757    15.154683   -6479.2465    6746.5353 
11354000   -136.38236   -136.60597    13.621313   -6504.4108    6746.5353 
11355000   -136.40367    -136.6365    14.183087   -6559.4848    6746.5353 
11356000   -136.37883    -136.6463    16.292888   -6609.2355    6746.5353 
11357000   -136.39215   -136.60979     13.25817   -6706.7332    6746.5353 
11358000   -136.38205   -136.61845    14.400511   -6553.1173    6746.5353 
11359000   -136.42359    -136.6406    13.219243   -6439.6324    6746.5353 
11360000   -136.37819    -136.6271    15.162882   -6518.2241    6746.5353 
11361000   -136.41699   -136.64141    13.671182   -6513.8151    6746.5353 
11362000   -136.46056   -136.63681    10.736566   -6601.1795    6746.5353 
11363000     -136.413   -136.63584    13.574611   -6618.8129    6746.5353 
11364000   -136.37976   -136.61041    14.050214   -6496.9279    6746.5353 
11365000   -136.43582   -136.63787    12.308428   -6334.2965    6746.5353 
11366000   -136.41914   -136.62591    12.595412   -6441.9569    6746.5353 
11367000   -136.44202   -136.65959    13.253768   -6552.8587    6746.5353 
11368000   -136.44803   -136.65393    12.542977   -6478.1213    6746.5353 
11369000   -136.42668   -136.63273     12.55216   -6435.1802    6746.5353 
11370000   -136.41995   -136.63916    13.353305   -6553.0906    6746.5353 
11371000   -136.45405    -136.6622    12.680102   -6508.1384    6746.5353 
11372000   -136.45419   -136.65112    11.996042   -6575.2251    6746.5353 
11373000   -136.44077   -136.64888    12.677708    -6579.916    6746.5353 
11374000   -136.47642   -136.66179    11.292012   -6677.6413    6746.5353 
11375000   -136.45384   -136.65989    12.551399   -6647.7725    6746.5353 
11376000   -136.43037   -136.64935    13.339275   -6635.3173    6746.5353 
11377000   -136.47013   -136.66527    11.887233    -6583.476    6746.5353 
11378000   -136.46603   -136.65051    11.237539   -6531.8681    6746.5353 
11379000   -136.49873   -136.66965     10.41187   -6435.3463    6746.5353 
11380000   -136.44509   -136.64468    12.158627   -6336.9292    6746.5353 
11381000   -136.49191   -136.66302    10.423227   -6448.9523    6746.5353 
11382000   -136.46952   -136.65781    11.469872   -6466.7688    6746.5353 
11383000   -136.42761   -136.67457     15.04359   -6454.8939    6746.5353 
11384000   -136.47603   -136.66018    11.217686   -6448.2924    6746.5353 
11385000   -136.49399   -136.65658    9.9045202   -6450.5772    6746.5353 
11386000   -136.47735   -136.67368    11.959444   -6637.2655    6746.5353 
11387000   -136.48056   -136.67581    11.893581   -6555.1417    6746.5353 
11388000   -136.52126   -136.70015    10.897016   -6497.8164    6746.5353 
11389000   -136.48599   -136.67292    11.386798   -6609.3151    6746.5353 
11390000   -136.46615   -136.66263    11.968728   -6608.7133    6746.5353 
11391000   -136.54464   -136.71457    10.351837   -6576.7701    6746.5353 
11392000   -136.50117   -136.67883     10.82262   -6719.7833    6746.5353 
11393000   -136.48665   -136.66703    10.988482   -6704.3903    6746.5353 
11394000   -136.51405   -136.67649    9.8955039   -6503.3343    6746.5353 
11395000   -136.52849   -136.71513    11.368933   -6726.3604    6746.5353 
11396000    -136.4997   -136.68317    11.175922    -6781.586    6746.5353 
11397000    -136.5346   -136.68705    9.2870605   -6507.0474    6746.5353 
11398000   -136.52396    -136.6776    9.3589378   -6425.3163    6746.5353 
11399000   -136.53188   -136.68795    9.5072387   -6410.6161    6746.5353 
11400000   -136.53427    -136.7019     10.21167   -6471.3611    6746.5353 
Loop time of 96.6293 on 1 procs for 1000000 steps with 128 atoms

Performance: 89.414 ns/day, 0.268 hours/ns, 10348.823 timesteps/s
99.8% CPU use with 1 MPI tasks x no OpenMP threads

MPI task timing breakdown:
Section |  min time  |  avg time  |  max time  |%varavg| %total
---------------------------------------------------------------
Pair    | 73.994     | 73.994     | 73.994     |   0.0 | 76.58
Neigh   | 0.009228   | 0.009228   | 0.009228   |   0.0 |  0.01
Comm    | 3.2773     | 3.2773     | 3.2773     |   0.0 |  3.39
Output  | 0.49111    | 0.49111    | 0.49111    |   0.0 |  0.51
Modify  | 17.78      | 17.78      | 17.78      |   0.0 | 18.40
Other   |            | 1.078      |            |       |  1.12

Nlocal:        128.000 ave         128 max         128 min
Histogram: 1 0 0 0 0 0 0 0 0 0
Nghost:        1369.00 ave        1369 max        1369 min
Histogram: 1 0 0 0 0 0 0 0 0 0
Neighs:        8873.00 ave        8873 max        8873 min
Histogram: 1 0 0 0 0 0 0 0 0 0

Total # of neighbors = 8873
Ave neighs/atom = 69.320312
Neighbor list builds = 48
Dangerous builds = 0
unfix 1
undump 3
undump 4
unfix fpe
unfix fmsd
unfix fvir
unfix fflux
unfix remove_drift
undump 1
undump 2
clear
Total wall time: 0:32:44
