units metal
dimension 3
atom_style atomic
atom_modify map array
boundary f f f
region mybox block -5 5 -5 5 -5 5
read_data starting_configuration.lj
Reading data file ...
  orthogonal box = (-5.0000000 -5.0000000 -5.0000000) to (5.0000000 5.0000000 5.0000000)
  1 by 1 by 1 MPI processor grid
  reading atoms ...
  13 atoms
  read_data CPU = 0.000 seconds
mass 1 39.948
velocity all create 78.0 1 mom yes rot yes dist gaussian
pair_style hybrid lj/cut 4.0
pair_coeff 1 1 lj/cut 0.01034 1.0
compute S all pressure NULL virial
fix vir all ave/time 1 50 50 c_S[1] c_S[2] c_S[3] c_S[6] c_S[5] c_S[4] file LJ_MD/1/tmp.virial
compute rdf all rdf 100
fix frdf all ave/time 50 9999 500000 c_rdf[*] file LJ_MD/1/tmp.rdf mode vector
compute pe all pe
fix fpe all ave/time 1 50 50 c_pe file LJ_MD/1/tmp.pe
compute msd all msd com yes
fix fmsd all ave/time 1 50 50 c_msd[4] file LJ_MD/1/tmp.msd
thermo 50
fix l0 all nve langevin 78.0 78.0 1 1
timestep 0.005
dump 1 all xyz 50 LJ_MD/1/dump.xyz
dump 2 all custom 50 LJ_MD/1/dump.positions_and_forces type id x y z fx fy fz
run 500000
Neighbor list info ...
  update every 1 steps, delay 10 steps, check yes
  max neighbors/atom: 2000, page size: 100000
  master list distance cutoff = 6
  ghost atom cutoff = 6
  binsize = 3, bins = 4 4 4
  2 neighbor lists, perpetual/occasional/extra = 1 1 0
  (1) pair lj/cut, perpetual
      attributes: half, newton on
      pair build: half/bin/atomonly/newton
      stencil: half/bin/3d
      bin: standard
  (2) compute rdf, occasional, copy from (1)
      attributes: half, newton on
      pair build: copy
      stencil: none
      bin: none
Per MPI rank memory allocation (min/avg/max) = 5.667 | 5.667 | 5.667 Mbytes
Step Temp E_pair E_mol TotEng Press 
       0           78  -0.45833913            0  -0.33735163    129.22983 
      50    18.700489  -0.36614021            0  -0.33713348   -105.21967 
     100    24.869289  -0.37569686            0  -0.33712157    23.632676 
     150    37.034221  -0.39470185            0  -0.33725726    315.78706 
     200    39.823498  -0.39900248            0  -0.33723138    227.75877 
     250    28.589127   -0.3815015            0  -0.33715628   -5.8860961 
     300    30.084505  -0.38380401            0  -0.33713928   -168.62522 
     350    35.343036   -0.3919908            0  -0.33716945   -53.123342 
     400    28.978141  -0.38208001            0  -0.33713138   -174.37338 
     450    41.564398  -0.40163836            0  -0.33716692   -153.12396 
     500    26.920867  -0.37891083            0  -0.33715329   -56.287956 
     550    39.330832   -0.3982277            0  -0.33722079    78.406903 
     600    22.456307  -0.37194527            0  -0.33711281    300.13463 
     650     30.77009  -0.38487636            0  -0.33714821   -86.745188 
     700    35.251591  -0.39182839            0  -0.33714888    -115.4096 
     750    22.493871  -0.37201102            0  -0.33712029    224.54403 
     800    27.758841  -0.38017434            0  -0.33711699    183.28866 
     850    37.203939  -0.39486975            0  -0.33716191   -100.79596 
     900    29.886975  -0.38348894            0   -0.3371306    68.245255 
     950    37.467284  -0.39526681            0  -0.33715049   -119.41106 
    1000     28.40012  -0.38119617            0  -0.33714412   -287.92358 
    1050    41.205047  -0.40107293            0  -0.33715888   -141.88671 
    1100    34.378933  -0.39048469            0  -0.33715878    74.160623 
    1150    34.071197  -0.38998365            0  -0.33713508      52.2276 
    1200    27.915989  -0.38043406            0  -0.33713296   -176.92288 
    1250    31.216608  -0.38555486            0   -0.3371341    36.771971 
    1300    38.378455  -0.39670465            0  -0.33717499    62.947152 
    1350    29.779405  -0.38336688            0   -0.3371754   -181.61352 
    1400    29.468752  -0.38283126            0  -0.33712164   -58.592191 
    1450    42.985704   -0.4038095            0  -0.33713344    87.829017 
    1500    28.476533  -0.38131511            0  -0.33714454   -122.05995 
    1550    32.216785  -0.38712025            0  -0.33714809   -50.364155 
    1600    33.927226  -0.38976307            0  -0.33713781   -40.232177 
    1650    26.895118  -0.37883239            0  -0.33711478   -333.24294 
    1700     49.29685   -0.4136672            0  -0.33720178    30.674242 
    1750    32.220678  -0.38714122            0  -0.33716302   -21.328878 
    1800    27.234577  -0.37930636            0  -0.33706221    33.257875 
    1850    29.392399  -0.38273499            0   -0.3371438   -32.575374 
    1900    33.657229  -0.38932132            0  -0.33711486    30.192924 
    1950    31.559762  -0.38609905            0  -0.33714602   -178.36641 
    2000    33.452707  -0.38903101            0  -0.33714179     -2.76049 
    2050     29.23641  -0.38246978            0  -0.33712055    24.260283 
    2100    37.791197  -0.39584245            0   -0.3372237   -68.044001 
    2150    31.898454  -0.38665255            0  -0.33717417   -74.594827 
    2200    38.114919  -0.39629359            0  -0.33717271     10.80455 
    2250    34.144442  -0.39011879            0   -0.3371566    76.688788 
    2300    34.691834  -0.39097281            0  -0.33716155   -264.52343 
    2350    39.884749  -0.39906698            0  -0.33720088   -131.72159 
    2400    24.007703  -0.37438687            0    -0.337148    11.555201 
    2450    33.643779  -0.38930833            0  -0.33712273    225.39857 
    2500    35.164795  -0.39172903            0  -0.33718415   -67.541051 
    2550    30.668729   -0.3847152            0  -0.33714427   -29.874373 
    2600    28.917814  -0.38196454            0  -0.33710949    86.429949 
    2650     29.65773  -0.38321135            0   -0.3372086   -160.61266 
    2700     35.33854  -0.39198304            0  -0.33716866    165.50829 
    2750    26.999702   -0.3790355            0  -0.33715568    210.17583 
    2800    34.437857  -0.39060994            0  -0.33719263   -93.930046 
    2850     29.94367  -0.38353464            0  -0.33708836   -7.1027864 
    2900     25.65867  -0.37692522            0   -0.3371255    96.617577 
    2950     24.29191  -0.37481084            0  -0.33713113    149.31828 
    3000    34.220742  -0.39021757            0  -0.33713704    141.43171 
    3050    43.608556  -0.40483489            0  -0.33719271   -87.947762 
    3100     28.32955  -0.38110411            0  -0.33716153   -159.22209 
    3150    41.475305  -0.40153921            0  -0.33720596    241.46486 
    3200    36.340809  -0.39352991            0  -0.33716089   -54.529056 
    3250    26.788263   -0.3786963            0  -0.33714444   -305.48259 
    3300     45.30707  -0.40745308            0   -0.3371763   -36.736547 
    3350     26.16866  -0.37775135            0  -0.33716057    84.898252 
    3400    36.185153  -0.39331719            0  -0.33718961    212.11821 
    3450     34.32251  -0.39042141            0  -0.33718302    9.7292811 
    3500    30.569818  -0.38456533            0  -0.33714782   -180.32268 
    3550    28.706893  -0.38165251            0  -0.33712462    147.96714 
    3600    40.289213  -0.39969596            0  -0.33720249    64.255323 
    3650    26.427873   -0.3781178            0  -0.33712496    -140.5295 
    3700    38.691422  -0.39717623            0  -0.33716113    144.09572 
    3750      28.9618  -0.38210577            0  -0.33718249   -87.853529 
    3800    29.532241  -0.38296601            0  -0.33715791    9.0274224 
    3850    28.064976  -0.38069058            0  -0.33715838   -74.142323 
    3900    22.785328  -0.37247494            0  -0.33713212   -235.39407 
    3950    42.840401  -0.40358663            0  -0.33713595   -47.532086 
    4000    25.584723  -0.37683703            0  -0.33715201    82.741214 
    4050    32.217394  -0.38710985            0  -0.33713675    166.58733 
    4100    26.708735  -0.37859434            0  -0.33716584   -100.99059 
    4150    28.275954  -0.38101434            0   -0.3371549   -235.34881 
    4200    24.761433  -0.37556403            0  -0.33715603   -13.759481 
    4250    23.391142  -0.37345885            0  -0.33717634    170.52232 
    4300    24.454935  -0.37507101            0  -0.33713843     384.3246 
    4350    25.520469  -0.37673619            0  -0.33715083   -164.89831 
    4400    21.902658  -0.37110637            0  -0.33713268   -210.93218 
    4450     22.10999  -0.37143713            0  -0.33714184    7.8547741 
    4500    17.822311  -0.36477008            0   -0.3371255    63.677363 
    4550    17.740658  -0.36465151            0  -0.33713359   -100.59911 
    4600    30.449959  -0.38438776            0  -0.33715617    118.50988 
    4650    22.124133  -0.37146162            0   -0.3371444    175.82153 
    4700    14.524656   -0.3596544            0  -0.33712489   -102.41939 
    4750    26.708566  -0.37858003            0  -0.33715179    21.625956 
    4800    26.483559  -0.37821579            0  -0.33713657   -66.601243 
    4850    19.927456  -0.36804928            0  -0.33713937   -73.488582 
    4900     19.79744  -0.36785312            0  -0.33714489    48.153977 
    4950    18.448332  -0.36574677            0  -0.33713116   -172.27087 
    5000    18.727947  -0.36615421            0  -0.33710489    333.61112 
    5050    29.168289  -0.38242752            0  -0.33718396     140.9761 
    5100    19.887284  -0.36796228            0  -0.33711468     51.93877 
    5150    18.287888  -0.36548714            0   -0.3371204   -14.050862 
    5200    23.976554  -0.37434899            0  -0.33715843   -34.378432 
    5250    26.003095  -0.37747286            0  -0.33713889     30.96599 
    5300    21.127544  -0.36988996            0  -0.33711857   -128.93766 
    5350    30.853693  -0.38499432            0  -0.33713649    -207.3254 
    5400    23.367261  -0.37338121            0  -0.33713574   -276.17945 
    5450    19.137265  -0.36682158            0  -0.33713736   -172.10261 
    5500    26.351182  -0.37800978            0  -0.33713589    23.385647 
    5550    18.470511  -0.36578541            0   -0.3371354    154.76025 
    5600    25.929932  -0.37738938            0   -0.3371689    6.3984832 
    5650    23.738857  -0.37395327            0  -0.33713141    15.775846 
    5700     20.37352  -0.36872989            0  -0.33712808   -87.247621 
    5750    14.971232   -0.3603411            0  -0.33711889   -84.197506 
    5800    20.203299  -0.36845972            0  -0.33712195   -19.844552 
    5850    16.343134  -0.36249771            0  -0.33714752   -171.31455 
    5900    28.710363  -0.38176219            0  -0.33722892    132.85782 
    5950    24.459836  -0.37508228            0  -0.33714209   -131.38837 
    6000    29.294984  -0.38257109            0    -0.337131   -28.490287 
    6050    28.128344  -0.38075774            0  -0.33712725   -6.7001234 
    6100    38.446313  -0.39675252            0  -0.33711761    308.69382 
    6150    20.122618  -0.36833275            0  -0.33712012   -84.917449 
    6200    41.928301  -0.40220182            0  -0.33716592    5.1494403 
    6250    29.156173  -0.38237673            0  -0.33715195    118.71369 
    6300    22.616774  -0.37215454            0  -0.33707317    399.16876 
    6350    36.195773  -0.39333787            0  -0.33719382   -55.572872 
    6400    39.276796  -0.39806338            0  -0.33714029   -130.59692 
    6450    28.361016  -0.38111445            0  -0.33712306   -124.10208 
    6500    27.010686  -0.37902691            0  -0.33713005   -227.64169 
    6550    42.407155  -0.40297342            0  -0.33719476   -85.455013 
    6600    33.680067  -0.38942613            0  -0.33718425    262.49873 
    6650    27.424799  -0.37969518            0  -0.33715598    129.10238 
    6700      41.3807  -0.40134751            0    -0.337161    33.824794 
    6750    26.057924  -0.37757047            0  -0.33715146   -107.84072 
    6800    39.701157  -0.39872725            0  -0.33714592   -60.349704 
    6850    31.445404  -0.38593792            0  -0.33716227    -287.3304 
    6900    36.445717  -0.39375267            0  -0.33722093   -81.382392 
    6950    52.093648  -0.41798842            0  -0.33718483   -25.489415 
    7000    28.361429  -0.38112532            0  -0.33713329   -163.11441 
    7050    35.260191  -0.39183768            0  -0.33714483   -43.037644 
    7100    31.070149  -0.38532242            0  -0.33712884   -263.20298 
    7150    25.529198  -0.37674554            0  -0.33714664   -134.31476 
    7200    42.067472   -0.4024787            0  -0.33722693    41.794034 
    7250    33.968821  -0.38984684            0  -0.33715706   -185.79985 
    7300    36.866555  -0.39439713            0  -0.33721262    47.544176 
    7350    46.818897  -0.40981226            0  -0.33719045    162.26861 
    7400    27.069721  -0.37912935            0  -0.33714092   -338.54353 
    7450    34.476612   -0.3906227            0  -0.33714527   -157.32746 
    7500    33.702519   -0.3894239            0  -0.33714719    -15.51442 
    7550    28.051269  -0.38065434            0  -0.33714341    15.331799 
    7600    28.352964   -0.3811138            0   -0.3371349   -77.857282 
    7650    29.816726  -0.38338991            0  -0.33714054   -24.130242 
    7700    23.716096  -0.37393246            0  -0.33714591    5.8478337 
    7750    33.308866  -0.38881526            0  -0.33714915   -66.555375 
    7800    34.908994  -0.39129918            0  -0.33715108   -31.496533 
    7850    27.799574  -0.38025281            0  -0.33713229    61.278816 
    7900    33.518699  -0.38918521            0  -0.33719363    79.386353 
    7950    30.833108  -0.38497417            0  -0.33714827   -166.22209 
    8000    32.451311  -0.38751033            0   -0.3371744   -55.130036 
    8050    30.797367  -0.38491861            0  -0.33714814    98.824597 
    8100    32.125188  -0.38701734            0  -0.33718726     148.9075 
    8150     36.19762  -0.39330637            0  -0.33715945   -10.935751 
    8200    27.502006   -0.3798309            0  -0.33717194   -129.94219 
    8250     36.75284  -0.39416932            0  -0.33716119   -92.126033 
    8300    33.807154  -0.38957305            0  -0.33713404   -242.17504 
    8350     36.76565  -0.39418291            0  -0.33715491   -263.31711 
    8400    30.389685   -0.3843094            0   -0.3371713   -68.207888 
    8450    36.679271  -0.39409213            0  -0.33719812    96.422271 
    8500     46.17454  -0.40894264            0  -0.33732031    17.302465 
    8550    33.129848  -0.38857628            0  -0.33718786    49.169464 
    8600    17.003955  -0.36349699            0  -0.33712179    147.68495 
    8650    38.816059  -0.39734643            0  -0.33713799    315.15895 
    8700     26.55604  -0.37833761            0  -0.33714596   -247.71806 
    8750    42.949357  -0.40379338            0   -0.3371737   -194.61114 
    8800    40.831835   -0.4005689            0  -0.33723375     125.3016 
    8850    28.977205  -0.38211452            0  -0.33716734    21.900133 
    8900    31.180482  -0.38552219            0  -0.33715747   -86.056937 
    8950    31.694224  -0.38630207            0  -0.33714047    27.808377 
    9000    23.419431  -0.37345186            0  -0.33712547    -58.60149 
    9050    38.154152  -0.39633694            0  -0.33715521   -80.748908 
    9100    33.858543  -0.38968223            0  -0.33716351   -131.11007 
    9150    37.970635  -0.39601131            0  -0.33711423    257.15334 
    9200    27.108531  -0.37921095            0  -0.33716232   -47.976784 
    9250    35.014138  -0.39146855            0  -0.33715736   -116.56797 
    9300    37.109622  -0.39475176            0  -0.33719022   -63.968263 
    9350    29.741301  -0.38327861            0  -0.33714623    26.874217 
    9400    20.516949  -0.36893289            0  -0.33710861    259.93799 
    9450    37.640933  -0.39552675            0  -0.33714108    72.424326 
    9500    22.113248  -0.37140379            0  -0.33710345   -41.884351 
    9550    35.654959  -0.39246558            0   -0.3371604   -96.471339 
    9600    29.118964  -0.38232072            0  -0.33715367    186.32034 
    9650    31.622155  -0.38620653            0  -0.33715671    78.116447 
    9700    37.444836  -0.39526564            0  -0.33718414    112.35295 
    9750    27.714386  -0.38013459            0   -0.3371462   -16.892899 
    9800    37.942129  -0.39603892            0  -0.33718606   -69.666351 
    9850     44.15727  -0.40570126            0  -0.33720796    152.05441 
    9900    31.899116  -0.38661615            0  -0.33713674   -155.60259 
    9950    25.497365  -0.37670027            0  -0.33715076   -166.29989 
   10000    34.030317  -0.38993867            0  -0.33715351   -135.58348 
   10050    24.579846  -0.37526939            0  -0.33714306   -97.903481 
   10100    37.456804  -0.39527268            0  -0.33717262   -21.463926 
   10150    20.203625  -0.36845819            0  -0.33711991    262.64627 
   10200    35.155801  -0.39166876            0  -0.33713783    127.37107 
   10250    30.429139  -0.38432755            0  -0.33712825    44.760267 
   10300     34.65121  -0.39086395            0   -0.3371157    5.5546091 
   10350    35.861803  -0.39277279            0  -0.33714677   -45.171385 
   10400    27.390889  -0.37960015            0  -0.33711355   -141.53009 
   10450    36.886014  -0.39436882            0  -0.33715412   -82.134504 
   10500    35.655072  -0.39247112            0  -0.33716576    16.142105 
   10550    29.246419  -0.38252612            0  -0.33716136    -34.93839 
   10600    31.724926  -0.38634069            0  -0.33713147    112.72929 
   10650    35.360678  -0.39199643            0  -0.33714772    -91.07765 
   10700    31.995022  -0.38678687            0   -0.3371587   -110.79164 
   10750    23.887162  -0.37417783            0  -0.33712594    101.96096 
   10800    27.330716  -0.37954183            0  -0.33714856   -26.812894 
   10850    29.819356  -0.38341758            0  -0.33716413   -84.099417 
   10900    23.204369   -0.3731214            0   -0.3371286   -4.9782631 
   10950    24.421261  -0.37499976            0  -0.33711941   -51.476875 
   11000    41.143424  -0.40104832            0  -0.33722986    478.51797 
   11050    27.066117  -0.37914648            0  -0.33716364    60.986812 
   11100    22.634986   -0.3722392            0  -0.33712958   -201.71226 
   11150    40.314672  -0.39973989            0  -0.33720692   -37.714792 
   11200     29.87238  -0.38340838            0  -0.33707268     62.82342 
   11250    20.718617  -0.36926299            0  -0.33712589    102.44625 
   11300    44.550667   -0.4062826            0  -0.33717909     248.5146 
   11350    27.427818  -0.37967986            0  -0.33713597    -298.5982 
   11400    33.590865   -0.3892978            0  -0.33719428   -137.85067 
   11450    32.244003   -0.3871929            0  -0.33717853    53.848327 
   11500    23.328893  -0.37332806            0  -0.33714211   -99.783461 
   11550    34.819011  -0.39116187            0  -0.33715335   -121.93905 
   11600    30.739343  -0.38483006            0   -0.3371496   -14.408721 
   11650    35.238726   -0.3917819            0  -0.33712235   -24.050371 
   11700    32.059407  -0.38691827            0  -0.33719023   -167.33905 
   11750    31.514901  -0.38602224            0  -0.33713879    79.239461 
   11800    33.405242  -0.38896333            0  -0.33714773   -58.361347 
   11850       40.896  -0.40062359            0  -0.33718891    -290.6569 
   11900    30.348666  -0.38424548            0    -0.337171   -19.822735 
   11950    37.429726  -0.39525119            0  -0.33719313     161.2335 
   12000    33.573702  -0.38925648            0  -0.33717958   -102.67818 
   12050    35.703174   -0.3925667            0  -0.33718673   -176.94433 
   12100    42.326611  -0.40284158            0  -0.33718785    16.363681 
   12150    34.065613  -0.39001036            0  -0.33717045   -75.383612 
   12200    34.084113  -0.39004711            0   -0.3371785   -83.768302 
   12250    39.307864  -0.39821982            0  -0.33724854   -43.685108 
   12300    27.794638  -0.38024023            0  -0.33712736    131.01012 
   12350    25.408612   -0.3765184            0  -0.33710655    426.03993 
   12400      26.8263  -0.37880423            0  -0.33719337    94.905004 
   12450    37.801402  -0.39579835            0  -0.33716377    68.424822 
   12500    15.895357   -0.3617498            0  -0.33709417   -197.61851 
   12550    48.568283  -0.41256904            0  -0.33723372   -71.857993 
   12600     37.85016  -0.39588028            0  -0.33717007   -139.64775 
   12650    24.879483  -0.37574264            0  -0.33715154   -67.304065 
   12700    40.334824  -0.39970145            0  -0.33713723   -51.304456 
   12750    32.932022   -0.3882128            0  -0.33713122   -158.27533 
   12800    34.610945  -0.39078763            0  -0.33710184   -38.574777 
   12850    23.536009  -0.37365378            0  -0.33714657   -154.06036 
   12900    31.989864  -0.38678047            0  -0.33716029    154.50958 
   12950    25.192014  -0.37621428            0   -0.3371384   -184.60764 
   13000    31.912952  -0.38663366            0  -0.33713279    14.678097 
   13050    38.133959  -0.39632473            0  -0.33717432     6.036136 
   13100    20.802654  -0.36939474            0  -0.33712729   -77.380498 
   13150    48.818836  -0.41292841            0  -0.33720446    133.34038 
   13200    28.976139  -0.38209289            0  -0.33714737   -153.16272 
   13250    21.524904  -0.37050609            0  -0.33711834   -37.100941 
   13300    40.319431  -0.39973296            0  -0.33719261    198.48707 
   13350    37.445012  -0.39524722            0  -0.33716545   -31.928247 
   13400    27.830021  -0.38030257            0  -0.33713482   -154.54578 
   13450    20.283898  -0.36860357            0  -0.33714077    48.635199 
   13500    32.985253  -0.38834142            0  -0.33717728    151.32626 
   13550    16.189753  -0.36224347            0  -0.33713119    168.22168 
   13600     17.28044  -0.36392319            0  -0.33711913    92.355563 
   13650    23.318713   -0.3733084            0  -0.33713824    175.61752 
   13700    29.408387  -0.38274168            0  -0.33712569    46.460122 
   13750    23.459907  -0.37352965            0  -0.33714048   -77.004732 
   13800    24.288342  -0.37480438            0   -0.3371302    22.379906 
   13850    25.525572  -0.37672076            0  -0.33712749    91.117773 
   13900    20.693482  -0.36922292            0  -0.33712482   -142.93317 
   13950    28.036553  -0.38063653            0  -0.33714842    25.096171 
   14000    21.600659  -0.37064796            0   -0.3371427      93.3454 
   14050    32.817579   -0.3880786            0  -0.33717454    11.198421 
   14100    18.753573  -0.36622293            0  -0.33713385   -154.02631 
   14150    27.696727   -0.3801501            0   -0.3371891    134.06583 
   14200     30.90154   -0.3851324            0  -0.33720035    244.17536 
   14250    18.548483  -0.36589855            0  -0.33712759   -73.228126 
   14300     27.20623  -0.37934467            0   -0.3371445    -144.4364 
   14350    19.880305  -0.36795193            0  -0.33711515    201.25778 
   14400    23.169122  -0.37306593            0   -0.3371278   -21.451603 
   14450     22.39306  -0.37187463            0  -0.33714027   -143.22478 
   14500    22.281914  -0.37168249            0  -0.33712053    85.551964 
   14550    19.095511  -0.36672951            0  -0.33711005   -135.24502 
   14600    39.030746  -0.39769485            0  -0.33715341   -102.56401 
   14650    24.483841  -0.37511056            0  -0.33713314   -125.32783 
   14700    26.486611  -0.37824052            0  -0.33715656   -97.061208 
   14750     13.80387  -0.35850195            0  -0.33709047    184.57493 
   14800    24.465077  -0.37509055            0  -0.33714223    190.53831 
   14850    30.827936  -0.38499071            0  -0.33717283   -126.66398 
   14900     18.90651   -0.3664365            0   -0.3371102   -230.29206 
   14950    26.872903  -0.37881851            0  -0.33713536   -57.288027 
   15000    31.843379  -0.38653873            0  -0.33714577    9.5715458 
   15050    10.942553  -0.35406154            0  -0.33708831     20.83559 
   15100    32.500514  -0.38758846            0  -0.33717621     139.0442 
   15150    22.341218  -0.37177967            0  -0.33712572    9.1163469 
   15200    23.092473  -0.37296988            0  -0.33715064   -138.63061 
   15250    22.897115  -0.37264334            0  -0.33712713   -80.371339 
   15300    28.583366  -0.38150881            0  -0.33717253   -20.275444 
   15350    25.675311  -0.37698187            0  -0.33715633   -66.093983 
   15400    23.062101  -0.37291875            0  -0.33714662   -118.31857 
   15450    32.118828  -0.38697266            0  -0.33715245    154.01149 
   15500    27.970911  -0.38052021            0  -0.33713392   -172.00891 
   15550    32.948552  -0.38824844            0  -0.33714123   -188.45779 
   15600    41.470685  -0.40152146            0  -0.33719538   -15.615707 
   15650    34.926362   -0.3913319            0  -0.33715686    200.64368 
   15700    25.261905  -0.37630774            0  -0.33712345   -286.41314 
   15750    36.719623  -0.39411601            0  -0.33715941   -67.392779 
   15800    38.279086  -0.39656043            0   -0.3371849   -205.66783 
   15850    29.638904  -0.38312057            0  -0.33714702   -160.95636 
   15900    31.244259  -0.38563539            0  -0.33717174    160.25717 
   15950    37.363814  -0.39515382            0    -0.337198    146.06441 
   16000    23.174818  -0.37308058            0  -0.33713361   -109.22374 
   16050      30.3197  -0.38418729            0  -0.33715775   -73.854565 
   16100    40.336633  -0.39971671            0  -0.33714968   -44.868482 
   16150    25.210733  -0.37627161            0  -0.33716669    316.37507 
   16200    32.555182  -0.38770356            0  -0.33720651     164.1155 
   16250    24.287124  -0.37481419            0   -0.3371419   -285.57302 
   16300    30.002272   -0.3836857            0  -0.33714853    256.81027 
   16350    32.275681  -0.38718446            0  -0.33712095    439.05432 
   16400     24.07327  -0.37445642            0  -0.33711585    73.409181 
   16450    31.320732   -0.3857127            0  -0.33713043   -250.65404 
   16500    32.886067   -0.3881587            0  -0.33714841   -88.501092 
   16550    32.136417   -0.3870276            0  -0.33718011    280.81941 
   16600    37.403932  -0.39522136            0   -0.3372033     101.0621 
   16650    31.918806  -0.38670943            0  -0.33719948   -62.091002 
   16700    28.727704  -0.38171852            0  -0.33715835   -142.31039 
   16750    42.824986  -0.40362865            0  -0.33720188    5.2627998 
   16800      37.8121  -0.39586832            0  -0.33721715   -155.34089 
   16850    32.502958  -0.38754568            0  -0.33712964   -70.844579 
   16900    33.890621  -0.38975241            0  -0.33718393    161.04665 
   16950    16.542014  -0.36278906            0  -0.33713038   -132.83904 
   17000    42.420442  -0.40296836            0  -0.33716909    -150.6843 
   17050    29.933706  -0.38350161            0  -0.33707079    196.27203 
   17100     23.80642  -0.37407854            0  -0.33715189   -40.690261 
   17150    45.847673  -0.40831479            0  -0.33719947    24.179548 
   17200    28.874255  -0.38196391            0  -0.33717643   -68.314104 
   17250    42.052439  -0.40247944            0  -0.33725099   -17.829974 
   17300    28.261487  -0.38096624            0  -0.33712923    29.200611 
   17350     33.31056  -0.38888997            0  -0.33722124    64.586488 
   17400    30.548039  -0.38450944            0  -0.33712571    182.93963 
   17450    27.972691  -0.38053026            0  -0.33714121    172.29435 
   17500    32.617762  -0.38775031            0  -0.33715619    -51.34353 
   17550    23.697841  -0.37390901            0  -0.33715078    74.476007 
   17600    31.701446  -0.38631661            0  -0.33714381    246.56151 
   17650    40.730112  -0.40036275            0  -0.33718538   -29.647666 
   17700    31.948827  -0.38669789            0  -0.33714137   -104.84924 
   17750    29.649998  -0.38306914            0  -0.33707839    88.326144 
   17800    46.296077  -0.40900367            0  -0.33719282    34.012228 
   17850     22.44553  -0.37194209            0  -0.33712634   -226.01243 
   17900    35.662661  -0.39248487            0  -0.33716774   -176.77878 
   17950    34.086696  -0.39001382            0  -0.33714121   -155.65989 
   18000    33.590953  -0.38932528            0  -0.33722163   -127.76823 
   18050    28.641493  -0.38156362            0  -0.33713718     292.3349 
   18100    41.695498   -0.4018794            0  -0.33720461      179.126 
   18150    21.091819  -0.36984725            0  -0.33713127   -143.64202 
   18200    21.028124  -0.36970568            0   -0.3370885   -91.297982 
   18250    47.241269   -0.4104597            0  -0.33718274    -84.02116 
   18300    32.432979  -0.38745076            0  -0.33714326    50.793864 
   18350    21.681514  -0.37078714            0  -0.33715648   -2.6442386 
   18400     36.94861  -0.39446462            0  -0.33715283    17.208252 
   18450    21.079081  -0.36980778            0  -0.33711156    187.32573 
   18500    33.436979  -0.38906929            0  -0.33720446    68.368508 
   18550    32.954302  -0.38825407            0  -0.33713793   -318.87366 
   18600    33.794573  -0.38954735            0  -0.33712785   -184.39547 
   18650    32.807353  -0.38807956            0  -0.33719136    119.61071 
   18700    32.512345  -0.38760838            0  -0.33717778    226.62531 
   18750    39.126689  -0.39784328            0  -0.33715302   -203.41009 
   18800    26.099258  -0.37761649            0  -0.33713336   -181.41039 
   18850     45.41114  -0.40758188            0  -0.33714367    22.788476 
   18900    28.177821  -0.38083321            0  -0.33712598   -141.91509 
   18950    26.967889  -0.37898038            0   -0.3371499   -155.48645 
   19000     28.49578  -0.38129809            0  -0.33709766    112.39517 
   19050    39.509971  -0.39844912            0  -0.33716434    225.17454 
   19100    18.374274  -0.36557006            0  -0.33706932    225.25497 
   19150    41.170393  -0.40105674            0  -0.33719644    30.862028 
   19200    27.781571  -0.38022503            0  -0.33713243    258.71858 
   19250    28.786129  -0.38178514            0  -0.33713435   -49.559618 
   19300    33.219568  -0.38865486            0  -0.33712726   -115.17289 
   19350    22.919536  -0.37266841            0  -0.33711742   -38.612024 
   19400    36.647537  -0.39401839            0   -0.3371736    33.783877 
   19450    35.986295  -0.39294447            0  -0.33712535    343.12008 
   19500    30.087758  -0.38382186            0  -0.33715209   -142.17632 
   19550    38.885063   -0.3974513            0  -0.33713584   -93.540623 
   19600    24.491861  -0.37514154            0  -0.33715168   -166.24746 
   19650    34.430729  -0.39058396            0  -0.33717771   -63.800423 
   19700    19.338952  -0.36708948            0  -0.33709241    19.065511 
   19750    46.035128  -0.40856694            0  -0.33716085    87.325581 
   19800    26.543703  -0.37834531            0   -0.3371728   -49.264258 
   19850    37.827905  -0.39586794            0  -0.33719226   -99.941134 
   19900    37.395755  -0.39520135            0  -0.33719598   -126.04243 
   19950    39.877828  -0.39899311            0  -0.33713775   -67.863353 
   20000    31.408985  -0.38585574            0  -0.33713658   -299.10013 
   20050    38.974528  -0.39766337            0  -0.33720914   -13.893782 
   20100     29.37933  -0.38272075            0  -0.33714984   -8.1592448 
   20150    45.826979  -0.40828452            0   -0.3372013   -84.286578 
   20200    18.648582  -0.36604206            0  -0.33711584   -112.89971 
   20250    34.817768  -0.39114782            0  -0.33714122   -102.91975 
   20300    33.113907  -0.38850138            0  -0.33713767    195.80274 
   20350    29.853932  -0.38348327            0  -0.33717619    195.41364 
   20400    35.211498  -0.39177071            0  -0.33715339   -80.034657 
   20450    31.729917  -0.38633619            0  -0.33711923   -47.180292 
   20500    32.011577  -0.38679397            0  -0.33714011    79.015554 
   20550    32.695286  -0.38783378            0  -0.33711942   -68.501247 
   20600    31.603179   -0.3861888            0  -0.33716842   -48.768835 
   20650    29.413021  -0.38275053            0  -0.33712736    142.06654 
   20700    30.812736  -0.38495913            0  -0.33716482    211.59764 
   20750    25.493293  -0.37666464            0  -0.33712144    218.53135 
   20800    36.539611  -0.39389171            0  -0.33721433    9.5404014 
   20850    29.458206  -0.38287695            0  -0.33718369   -115.42699 
   20900    38.240827  -0.39651557            0  -0.33719939   -2.6947472 
   20950    35.789901  -0.39268633            0  -0.33717184    79.788506 
   21000    23.565608  -0.37369097            0  -0.33713784   -45.798758 
   21050    35.826219  -0.39274025            0  -0.33716943    167.85963 
   21100    34.781261  -0.39116365            0  -0.33721368    33.573406 
   21150    29.891643  -0.38352434            0  -0.33715877    50.436359 
   21200    43.275958   -0.4043994            0  -0.33727312   -87.211588 
   21250    37.086949  -0.39473724            0  -0.33721087   -75.205843 
   21300    28.703789  -0.38168281            0  -0.33715974   -65.697354 
   21350    31.958536  -0.38664989            0  -0.33707831      339.415 
   21400    28.558033  -0.38146362            0  -0.33716663   -34.191125 
   21450    28.833372  -0.38183839            0  -0.33711432   -14.443502 
   21500    28.626409   -0.3815654            0  -0.33716236    16.201958 
   21550    36.306032  -0.39350653            0  -0.33719146   -156.40646 
   21600    24.258309  -0.37475686            0  -0.33712927   -23.382095 
   21650    31.968647   -0.3866666            0  -0.33707934    346.81535 
   21700    32.522132  -0.38758778            0  -0.33714199   -96.848009 
   21750    25.870642  -0.37725366            0  -0.33712514    84.581289 
   21800    32.776695  -0.38790658            0  -0.33706593    525.62933 
   21850    27.235452  -0.37941029            0  -0.33716479   -31.160076 
   21900    35.136887  -0.39168589            0  -0.33718431   -64.043779 
   21950    45.324606  -0.40750346            0  -0.33719948   -126.53067 
   22000    31.452674  -0.38596637            0  -0.33717944    -261.2972 
   22050    35.272613  -0.39188301            0   -0.3371709   -110.80592 
   22100    37.753135  -0.39570388            0  -0.33714418    223.41262 
   22150    32.586364  -0.38771879            0  -0.33717337   -125.78466 
   22200    36.426975  -0.39366646            0  -0.33716378   -40.898967 
   22250    20.568475  -0.36902748            0  -0.33712328   -1.2147231 
   22300    47.088412  -0.41029191            0  -0.33725204    42.430014 
   22350    25.372075  -0.37648696            0  -0.33713179   -101.43822 
   22400    38.332883  -0.39661207            0  -0.33715311    107.26786 
   22450    26.822484  -0.37879238            0  -0.33718744    38.385308 
   22500    31.768284  -0.38644555            0  -0.33716907     44.51994 
   22550    40.309544  -0.39973934            0  -0.33721433    66.475925 
   22600    34.479883  -0.39066367            0  -0.33718118   -200.22812 
   22650    32.232137  -0.38713029            0  -0.33713432   -10.760987 
   22700    28.448383  -0.38127938            0  -0.33715248   -78.312736 
   22750    43.124954  -0.40403229            0  -0.33714024    59.903491 
   22800    28.630839  -0.38156581            0  -0.33715589   -116.00904 
   22850    44.383748  -0.40601561            0  -0.33717101   -100.89705 
   22900    29.403762  -0.38277125            0  -0.33716243   -152.30494 
   22950    40.230583   -0.3995899            0  -0.33718737    19.850604 
   23000    26.856134  -0.37878723            0   -0.3371301     157.4092 
   23050    38.190128  -0.39641028            0  -0.33717274   -28.940954 
   23100     26.94093   -0.3789565            0  -0.33716783   -179.37378 
   23150    20.159685  -0.36840434            0  -0.33713422   -119.48659 
   23200    32.660137  -0.38779778            0  -0.33713794     314.0558 
   23250    33.767962  -0.38955003            0  -0.33717181    7.4772212 
   23300    28.961011  -0.38205154            0  -0.33712949   -110.50513 
   23350    34.504195  -0.39066799            0  -0.33714779    -67.00285 
   23400    37.162895  -0.39478879            0  -0.33714462   -139.71871 
   23450    23.771934  -0.37402218            0  -0.33714902     8.513143 
   23500    35.991113  -0.39295436            0  -0.33712777    339.60694 
   23550    36.746879  -0.39415562            0  -0.33715674   -109.35975 
   23600    28.860204   -0.3819089            0  -0.33714321   -295.78119 
   23650    33.015132  -0.38835089            0   -0.3371404    42.868685 
   23700    43.588183  -0.40485948            0   -0.3372489    97.423951 
   23750    26.483274  -0.37822418            0  -0.33714539   -13.345032 
   23800    31.089708  -0.38535905            0  -0.33713513    87.468646 
   23850    36.904735  -0.39441156            0  -0.33716782   0.78664494 
   23900    24.626912  -0.37532479            0  -0.33712545   -94.835372 
   23950    32.392721  -0.38738445            0   -0.3371394   -28.667359 
   24000    36.812664  -0.39427088            0  -0.33716996    69.291611 
   24050    34.710185  -0.39099333            0  -0.33715361   -227.57579 
   24100    33.672158  -0.38933719            0  -0.33710758     13.31785 
   24150    32.838921  -0.38809827            0   -0.3371611    53.273357 
   24200    34.227169  -0.39027235            0  -0.33718184   -94.906994 
   24250    39.358877  -0.39821271            0   -0.3371623    186.53344 
   24300    21.362343  -0.37027727            0  -0.33714167   -182.74438 
   24350    27.704935  -0.38009026            0  -0.33711653     86.96913 
   24400    18.947106  -0.36653211            0  -0.33714284    184.05705 
   24450     29.94959   -0.3836027            0  -0.33714724   -203.54135 
   24500    20.605056  -0.36909166            0   -0.3371307   -15.562241 
   24550    25.706666  -0.37699613            0  -0.33712196   -62.704455 
   24600    21.637034  -0.37068866            0  -0.33712699   -161.61252 
   24650    28.692748  -0.38156819            0  -0.33706224    143.30263 
   24700    27.482978  -0.37976361            0  -0.33713416   -127.39906 
   24750    38.388582  -0.39670826            0  -0.33716289    -38.84641 
   24800    29.044983  -0.38218555            0  -0.33713325   -182.36972 
   24850    31.305157  -0.38571186            0  -0.33715376    41.855843 
   24900    29.985208  -0.38363527            0  -0.33712456    31.000222 
   24950    25.160011  -0.37614185            0  -0.33711561    42.122544 
   25000    37.718298  -0.39566906            0  -0.33716339    100.80419 
   25050    25.428694  -0.37655059            0  -0.33710759    44.086002 
   25100    31.184267  -0.38545108            0  -0.33708048    244.26518 
   25150     27.45786  -0.37968915            0  -0.33709866    29.365382 
   25200    31.246155  -0.38561888            0  -0.33715229   -333.70989 
   25250    37.996106  -0.39608998            0  -0.33715339    648.77763 
   25300    24.191213  -0.37466093            0  -0.33713742   -108.11297 
   25350    32.350656  -0.38734792            0  -0.33716812   -5.6595442 
   25400    35.512257  -0.39221701            0  -0.33713318    133.29198 
   25450    25.912447  -0.37733414            0  -0.33714078   -188.98645 
   25500    32.516342  -0.38760339            0  -0.33716659   -19.444424 
   25550    34.590324  -0.39083861            0  -0.33718481   -38.398689 
   25600    29.805367  -0.38335401            0  -0.33712226    130.73686 
   25650    45.034562  -0.40701382            0  -0.33715973   -10.408099 
   25700    19.419974  -0.36726489            0  -0.33714215   -157.79743 
   25750    31.752949  -0.38641877            0  -0.33716609    81.554559 
   25800     34.18399  -0.39018759            0  -0.33716406   -11.719695 
   25850    40.540116  -0.40007929            0  -0.33719663   -88.000862 
   25900      30.3023  -0.38415937            0  -0.33715682   -102.10624 
   25950    41.238584  -0.40113326            0  -0.33716719    148.94757 
   26000     18.84959  -0.36634224            0  -0.33710423     106.5393 
   26050     32.57823  -0.38768987            0  -0.33715707    135.49894 
   26100    31.960308  -0.38674301            0  -0.33716868   -117.08511 
   26150     36.76581  -0.39418701            0  -0.33715876   -20.019673 
   26200    31.027737  -0.38527497            0  -0.33714717    -80.93675 
   26250    20.675389  -0.36921269            0  -0.33714264     146.8385 
   26300     32.61553   -0.3878158            0  -0.33722514    135.31627 
   26350    29.420912  -0.38280323            0  -0.33716781    60.147754 
   26400    41.300404  -0.40119619            0  -0.33713423   -30.662227 
   26450    26.693245  -0.37854997            0   -0.3371455   -265.42048 
   26500    37.238939  -0.39494453            0   -0.3371824    6.8092061 
   26550    37.553843  -0.39540745            0  -0.33715687   -189.09769 
   26600    20.035878  -0.36820737            0  -0.33712928    144.05342 
   26650    18.891972  -0.36642562            0  -0.33712187    64.084515 
   26700    39.369946  -0.39822211            0  -0.33715453    257.76939 
   26750    31.719727  -0.38637922            0  -0.33717806    50.327454 
   26800    25.146554  -0.37617412            0  -0.33716875   -197.41463 
   26850    44.703529   -0.4065069            0  -0.33716629   -139.42486 
   26900    25.313192  -0.37639355            0   -0.3371297   -71.567083 
   26950    33.453286  -0.38900026            0  -0.33711014   -46.063783 
   27000    27.731435  -0.38015763            0  -0.33714279    -118.9943 
   27050    26.651544  -0.37849937            0  -0.33715958    6.7473925 
   27100    39.647173  -0.39865866            0  -0.33716107   -125.21833 
   27150    28.884853  -0.38194747            0  -0.33714355   -140.34283 
   27200    43.882848  -0.40524992            0  -0.33718228   -47.831809 
   27250    26.043823   -0.3775317            0  -0.33713456    13.129238 
   27300     39.59818  -0.39853407            0  -0.33711247    77.080663 
   27350    27.783368  -0.38021292            0  -0.33711754   -7.8022412 
   27400    25.865331  -0.37726273            0  -0.33714246   -79.328578 
   27450    34.185912  -0.39015902            0  -0.33713251    32.526709 
   27500    33.778515  -0.38957473            0  -0.33718014    136.13585 
   27550    33.549332  -0.38919004            0  -0.33715094    118.04307 
   27600     19.16254  -0.36687192            0  -0.33714849    -20.00509 
   27650    50.578907  -0.41563949            0  -0.33718544    329.00474 
   27700    21.738824  -0.37087443            0  -0.33715487    81.092935 
   27750    18.735146  -0.36619004            0  -0.33712955   -173.03495 
   27800    36.724292  -0.39411053            0  -0.33714668   -28.645203 
   27850    27.345569  -0.37952968            0  -0.33711338   -235.75404 
   27900    41.546696  -0.40158709            0   -0.3371431   -178.94744 
   27950    22.732778  -0.37237569            0  -0.33711439   -194.50497 
   28000    32.183512  -0.38707831            0  -0.33715776   -187.86366 
   28050     31.15888  -0.38546124            0  -0.33713002    17.808741 
   28100    30.234216  -0.38401333            0  -0.33711638   -117.87619 
   28150     36.73428  -0.39414761            0  -0.33716827    127.97626 
   28200    30.767169  -0.38491594            0  -0.33719231    2.9513463 
   28250     36.91229  -0.39445168            0  -0.33719622   -54.780131 
   28300    25.802126  -0.37716209            0  -0.33713985    34.910922 
   28350    36.884752  -0.39442163            0  -0.33720889    53.329146 
   28400    24.662336  -0.37539185            0  -0.33713757   -117.85034 
   28450    35.055391  -0.39151916            0  -0.33714398   -29.445097 
   28500    31.902294  -0.38661475            0   -0.3371304     7.427804 
   28550    30.108083  -0.38383588            0  -0.33713458   -219.95478 
   28600    40.971988  -0.40067734            0   -0.3371248   0.54620339 
   28650    30.552139  -0.38454572            0  -0.33715563    148.00464 
   28700    26.661821  -0.37849425            0  -0.33713852   -97.751107 
   28750    27.205534  -0.37938428            0  -0.33718519    183.67458 
   28800    37.719609  -0.39573186            0  -0.33722416    226.02168 
   28850    20.770788  -0.36935777            0  -0.33713975    180.76733 
   28900    36.672894  -0.39405434            0  -0.33717021    116.93627 
   28950    34.903478  -0.39131265            0  -0.33717311   -36.560749 
   29000     30.85149  -0.38500997            0  -0.33715555   -91.631524 
   29050    25.497195  -0.37668848            0  -0.33713923   -124.25119 
   29100    46.053848  -0.40860376            0  -0.33716863   -76.781309 
   29150    30.314359   -0.3841648            0  -0.33714354   -226.84229 
   29200    28.953206  -0.38205096            0  -0.33714101   -1.4932291 
   29250    29.696441  -0.38318215            0  -0.33711936    215.72269 
   29300    33.646761   -0.3893864            0  -0.33719618    41.502297 
   29350     25.11519   -0.3760785            0  -0.33712178    66.899457 
   29400    19.664474  -0.36759169            0  -0.33708969    357.96863 
   29450    30.392216  -0.38426975            0  -0.33712773    311.86749 
   29500    25.609375  -0.37690108            0  -0.33717782   -156.00753 
   29550    41.447146  -0.40142029            0  -0.33713072    279.83807 
   29600    20.188369  -0.36845289            0  -0.33713827   -185.32742 
   29650    26.881093  -0.37882999            0  -0.33713414   -62.222028 
   29700     24.90002  -0.37574422            0  -0.33712126    106.69914 
   29750    42.361441  -0.40287226            0  -0.33716451    -14.98916 
   29800    20.829127  -0.36945179            0  -0.33714328    50.503745 
   29850    54.707248  -0.42209138            0  -0.33723378     285.5351 
   29900    25.318488  -0.37641946            0   -0.3371474    -200.1848 
   29950    34.406987  -0.39051615            0  -0.33714673   -170.23871 
   30000    26.758942  -0.37865701            0  -0.33715063   -129.90838 
   30050    45.175105  -0.40724041            0  -0.33716832    233.96392 
   30100    23.903653  -0.37421501            0  -0.33713753   -8.0038905 
   30150    26.347145  -0.37801021            0  -0.33714258   -47.266861 
   30200    31.501645  -0.38603279            0   -0.3371699   -211.08212 
   30250    25.067816  -0.37604631            0  -0.33716307   -264.17261 
   30300    25.594902  -0.37681083            0  -0.33711002   -82.803503 
   30350     45.27463  -0.40737128            0  -0.33714482    21.737257 
   30400    28.325906  -0.38108521            0  -0.33714828   -223.73901 
   30450    33.629387  -0.38925257            0  -0.33708929    66.276927 
   30500    32.634599  -0.38776957            0  -0.33714933    194.55191 
   30550    21.101938  -0.36982569            0  -0.33709401    55.601687 
   30600    35.460712  -0.39218454            0  -0.33718066    24.248901 
   30650    37.483436  -0.39531205            0  -0.33717068    299.96216 
   30700     33.76691  -0.38953122            0  -0.33715463   -221.94298 
   30750    31.401245  -0.38584872            0  -0.33714157   -165.54235 
   30800    44.978791   -0.4069541            0  -0.33718651   -77.166786 
   30850    32.078536   -0.3869375            0  -0.33717979   -127.23935 
   30900    28.568419  -0.38148785            0  -0.33717475   -22.246039 
   30950    45.488054  -0.40779786            0  -0.33724035    126.15738 
   31000    23.933921  -0.37427473            0  -0.33715031   -129.15538 
   31050    37.397086  -0.39520801            0  -0.33720057     52.77128 
   31100    28.849041  -0.38189226            0  -0.33714389   -34.966165 
   31150    37.083343  -0.39465767            0  -0.33713689    74.578027 
   31200    33.232822  -0.38873306            0  -0.33718491   -162.59806 
   31250    32.345248  -0.38739161            0  -0.33722019   -8.5640945 
   31300    36.406371  -0.39361544            0  -0.33714473    184.29618 
   31350    21.354878  -0.37021882            0  -0.33709481     107.0523 
   31400    42.335908  -0.40283244            0  -0.33716429   -182.27263 
   31450    29.839395  -0.38340128            0  -0.33711674   -250.27652 
   31500     23.88641  -0.37417665            0  -0.33712592    20.596926 
   31550    35.659421  -0.39247374            0  -0.33716163    363.02085 
   31600    44.726938  -0.40659908            0  -0.33722215    108.18094 
   31650    24.705354  -0.37545521            0  -0.33713419   -61.596595 
   31700      31.9875  -0.38681621            0   -0.3371997    214.99833 
   31750    31.557408  -0.38615775            0  -0.33720837    138.61723 
   31800    30.967265  -0.38517182            0  -0.33713782    167.05676 
   31850     26.55766  -0.37832788            0  -0.33713372   -143.93423 
   31900    26.638208  -0.37845113            0  -0.33713203   -130.04718 
   31950    39.317994  -0.39810169            0   -0.3371147     287.7399 
   32000    21.441527  -0.37039853            0  -0.33714011   -100.02547 
   32050    44.316642  -0.40586095            0  -0.33712044    103.27775 
   32100    21.851868   -0.3710225            0  -0.33712759   -272.47383 
   32150    22.583182   -0.3721457            0  -0.33711644   -134.83741 
   32200    31.573157   -0.3861309            0  -0.33715709    15.613088 
   32250     22.24887  -0.37164349            0  -0.33713278    299.28915 
   32300    31.308729  -0.38569892            0  -0.33713527    209.53879 
   32350    27.425018  -0.37971255            0  -0.33717301    14.215409 
   32400    50.511884  -0.41556984            0  -0.33721976    45.074307 
   32450    25.538724  -0.37674578            0  -0.33713211   -352.65515 
   32500    32.143698  -0.38697239            0   -0.3371136   -168.88954 
   32550    46.862711  -0.40988079            0  -0.33719102   -40.373571 
   32600    25.386327  -0.37651755            0  -0.33714027    101.64778 
   32650    27.829034  -0.38030451            0  -0.33713829    100.92859 
   32700    41.362315   -0.4013279            0  -0.33716991   -57.702397 
   32750    33.069413  -0.38845444            0  -0.33715976   -177.14765 
   32800    46.461788  -0.40924811            0  -0.33718023    -117.4402 
   32850    27.914847  -0.38046109            0  -0.33716177   -132.31845 
   32900     39.28875  -0.39811093            0  -0.33716929    136.23975 
   32950    21.250116  -0.37005517            0  -0.33709365   -37.697989 
   33000    29.846494  -0.38344779            0  -0.33715224   -87.632003 
   33050    38.737982  -0.39730311            0  -0.33721579    218.11935 
   33100      25.5842  -0.37683325            0  -0.33714904    75.797707 
   33150     43.02457  -0.40395947            0  -0.33722312   -32.547766 
   33200    22.727455  -0.37236955            0   -0.3371165   -34.220003 
   33250    28.819671  -0.38187709            0  -0.33717427    66.976838 
   33300    31.342498  -0.38576128            0  -0.33714525   -27.101193 
   33350    38.114205  -0.39635305            0  -0.33723328   -60.489646 
   33400    28.373893  -0.38115287            0  -0.33714151    98.374373 
   33450    32.690847  -0.38786659            0  -0.33715911   -53.670559 
   33500    39.253709  -0.39805767            0  -0.33717039   -50.753739 
   33550    30.411484  -0.38430645            0  -0.33713454   -92.220577 
   33600    41.439368  -0.40145509            0  -0.33717759   -187.03016 
   33650    23.651227  -0.37379936            0  -0.33711343   -82.065687 
   33700    41.333132  -0.40130421            0  -0.33719149     83.20335 
   33750    28.076783  -0.38073404            0  -0.33718353    244.86405 
   33800     30.40274  -0.38427211            0  -0.33711376    177.93701 
   33850    37.366623  -0.39510506            0  -0.33714488    73.776079 
   33900    24.031592  -0.37440497            0  -0.33712904    96.389382 
   33950    28.734683  -0.38168842            0  -0.33711743    19.403821 
   34000    32.739091   -0.3879695            0  -0.33718719    4.9865131 
   34050    47.356897  -0.41067638            0  -0.33722007    35.416899 
   34100    22.208433  -0.37158762            0  -0.33713964   -222.89986 
   34150    36.139577  -0.39325278            0  -0.33719589   -58.944937 
   34200    41.430309  -0.40143805            0   -0.3371746    45.347174 
   34250    19.204588  -0.36694205            0   -0.3371534    336.71859 
   34300    42.731683  -0.40346728            0  -0.33718523   -117.75839 
   34350    29.280622  -0.38256273            0  -0.33714492   -211.65081 
   34400    34.650281  -0.39088377            0  -0.33713696   -138.59617 
   34450    29.646241  -0.38319641            0  -0.33721148    129.04891 
   34500    33.893848  -0.38974133            0  -0.33716785    328.50116 
   34550    19.486602  -0.36729507            0  -0.33706898    138.81539 
   34600    26.982194  -0.37894087            0   -0.3370882    198.99618 
   34650    29.599211  -0.38305017            0  -0.33713819   -78.030038 
   34700    34.165449  -0.39013025            0  -0.33713548   -18.338455 
   34750    30.011506  -0.38366615            0  -0.33711465    39.852339 
   34800    34.129948  -0.39008293            0  -0.33714323   -103.45943 
   34850    31.298503  -0.38567721            0  -0.33712942   -173.90427 
   34900     29.64611  -0.38308836            0  -0.33710364    46.568759 
   34950    40.025366  -0.39924673            0  -0.33716252    230.57047 
   35000    37.238674  -0.39493822            0   -0.3371765   -55.044782 
   35050    38.529721  -0.39691369            0   -0.3371494   -243.05789 
   35100    29.338714  -0.38264099            0  -0.33713307   -120.48432 
   35150    36.966003  -0.39450476            0  -0.33716599    133.51496 
   35200    23.642257  -0.37378669            0  -0.33711467    71.830478 
   35250    22.849919  -0.37254465            0  -0.33710165    28.285027 
   35300    21.285623  -0.37014428            0  -0.33712769   -227.81423 
   35350    22.847441  -0.37257964            0  -0.33714047   -150.57051 
   35400    26.045711  -0.37751332            0  -0.33711325    142.69658 
   35450    29.134472  -0.38233349            0  -0.33714238    23.244751 
   35500    22.800588  -0.37253282            0  -0.33716633   -21.121802 
   35550    27.117527  -0.37922507            0  -0.33716248   -67.017067 
   35600    21.280141  -0.37014065            0  -0.33713256    347.73807 
   35650    24.234582  -0.37474846            0  -0.33715768    -21.44666 
   35700    27.846077  -0.38035145            0  -0.33715879   -157.03339 
   35750    27.378559  -0.37962153            0  -0.33715405   -28.333006 
   35800    17.591615  -0.36440279            0  -0.33711605    24.438419 
   35850    24.187376  -0.37462946            0  -0.33711189    107.95881 
   35900    36.181638  -0.39323341            0  -0.33711128   -87.194804 
   35950    18.729192  -0.36617045            0   -0.3371192   -210.30918 
   36000    40.665839  -0.40026975            0  -0.33719208    302.23656 
   36050    29.309923  -0.38259834            0  -0.33713508    135.36206 
   36100    30.438701  -0.38436516            0  -0.33715103   -260.43672 
   36150    25.426953  -0.37654828            0  -0.33710798     77.01067 
   36200    42.667434   -0.4033938            0  -0.33721141    272.56724 
   36250    34.741859  -0.39104785            0    -0.337159    196.19575 
   36300    22.559901  -0.37212708            0  -0.33713392   -336.94239 
   36350    38.399438  -0.39671077            0  -0.33714857    282.90547 
   36400     27.76041  -0.38020135            0  -0.33714158   -23.162096 
   36450    30.994023  -0.38520143            0  -0.33712592    100.79962 
   36500    23.778778  -0.37405135            0  -0.33716757   -104.13658 
   36550    34.226611  -0.39022895            0  -0.33713931   -106.22482 
   36600    32.845472  -0.38809444            0  -0.33714711   -108.74547 
   36650    31.966936  -0.38674442            0  -0.33715981    40.124457 
   36700    40.079364   -0.3993327            0  -0.33716473   -175.79988 
   36750    31.029314  -0.38525657            0  -0.33712633   -190.03556 
   36800    34.225983   -0.3902264            0  -0.33713773   -116.65884 
   36850    29.805386  -0.38332989            0  -0.33709811    100.82101 
   36900    18.397091  -0.36564798            0  -0.33711186   -21.800678 
   36950    32.731528  -0.38793975            0  -0.33716917    94.860223 
   37000    46.669502  -0.40957527            0  -0.33718519    62.983974 
   37050    39.143553  -0.39791275            0  -0.33719633    70.911609 
   37100    23.007165  -0.37281299            0  -0.33712607   -112.34468 
   37150    43.065531  -0.40395874            0  -0.33715886   -103.19632 
   37200    24.564794  -0.37523773            0  -0.33713474   -92.548464 
   37250    27.637103  -0.37999853            0  -0.33713002   -181.73289 
   37300    33.554681   -0.3892131            0  -0.33716571    56.508971 
   37350    31.029674  -0.38526658            0  -0.33713578    79.530152 
   37400      29.4797  -0.38289688            0  -0.33717028   -50.569983 
   37450    30.024441  -0.38372623            0  -0.33715467    60.548783 
   37500    31.418407  -0.38587926            0  -0.33714548   -100.88159 
   37550    36.222455  -0.39344558            0  -0.33726015    53.852037 
   37600    30.788474  -0.38490212            0  -0.33714545    32.932355 
   37650    21.866772  -0.37106972            0   -0.3371517   -38.982268 
   37700    29.896861  -0.38354775            0  -0.33717408   -13.406097 
   37750    41.496349  -0.40153928            0  -0.33717339       121.29 
   37800    23.599288  -0.37373932            0  -0.33713395    -279.6495 
   37850    27.911007  -0.38034253            0  -0.33704916   -2.1722287 
   37900    49.030681  -0.41325643            0  -0.33720388   -84.709885 
   37950    22.890389  -0.37262603            0  -0.33712025   -400.22105 
   38000    29.440826  -0.38280278            0  -0.33713648   -219.36396 
   38050    22.235859  -0.37162528            0  -0.33713476    243.00383 
   38100    46.882457  -0.40990305            0  -0.33718265    143.72236 
   38150    16.453287  -0.36265699            0  -0.33713594   -170.86972 
   38200    43.465363  -0.40461023            0  -0.33719016   -163.57299 
   38250    31.802655  -0.38646012            0  -0.33713033    272.43454 
   38300    32.162042  -0.38703226            0  -0.33714502    35.880058 
   38350    36.359316  -0.39355052            0  -0.33715279    -70.61999 
   38400    27.572239  -0.37991796            0  -0.33715006    -117.4172 
   38450    33.411064  -0.38898092            0  -0.33715629   -79.387215 
   38500    21.031382  -0.36975724            0  -0.33713501    14.664276 
   38550    32.602693  -0.38769448            0  -0.33712374    295.52068 
   38600    38.756416  -0.39731517            0  -0.33719925   -24.544482 
   38650    22.131106  -0.37144811            0  -0.33712007   -105.41962 
   38700     32.96148  -0.38825995            0  -0.33713268    30.401814 
   38750    39.077241  -0.39776893            0  -0.33715537    -62.03218 
   38800    29.651481  -0.38316262            0  -0.33716956   -7.2542396 
   38850    28.792702  -0.38177866            0  -0.33711767    82.324129 
   38900    26.027863  -0.37751127            0  -0.33713889     17.12421 
   38950    25.934728  -0.37738662            0   -0.3371587    6.5399202 
   39000    49.412125  -0.41393532            0  -0.33729109     229.3261 
   39050    34.376898  -0.39047347            0  -0.33715072    17.117815 
   39100    27.378562  -0.37962422            0  -0.33715674     -263.199 
   39150    28.277769  -0.38099761            0  -0.33713534   -12.155865 
   39200    47.327637  -0.41059985            0  -0.33718893   -13.277316 
   39250    32.453517  -0.38751838            0  -0.33717902     52.59783 
   39300     38.77648  -0.39731316            0  -0.33716612    35.502219 
   39350    26.843655  -0.37881205            0  -0.33717428    69.233809 
   39400     33.48666  -0.38907651            0  -0.33713463     84.23911 
   39450    34.832762  -0.39117377            0  -0.33714391   -172.62913 
   39500    31.785178  -0.38647211            0  -0.33716943     73.77045 
   39550    32.138225  -0.38699102            0  -0.33714072    274.56397 
   39600    34.725464  -0.39106496            0  -0.33720154   -89.008655 
   39650    34.171602  -0.39014615            0  -0.33714183   -196.47857 
   39700    33.866223   -0.3897551            0  -0.33722447    31.829118 
   39750    33.713065  -0.38944381            0  -0.33715074   -24.523227 
   39800     30.88567  -0.38508848            0  -0.33718105    182.22812 
   39850    31.269794  -0.38565314            0  -0.33714988    102.99054 
   39900    37.601517  -0.39545713            0   -0.3371326   -58.336438 
   39950    21.719874  -0.37082149            0  -0.33713132   -255.38934 
   40000    40.255857  -0.39959761            0  -0.33715588   -100.08586 
   40050     34.11614  -0.39006796            0  -0.33714967    258.84283 
   40100    30.407321  -0.38427339            0  -0.33710793    138.06749 
   40150     33.37879  -0.38891088            0  -0.33713631   -118.61399 
   40200    35.411837  -0.39208528            0  -0.33715721   -162.85683 
   40250    31.275846   -0.3857187            0  -0.33720605    260.48443 
   40300     20.71775  -0.36925872            0  -0.33712297    2.3763087 
   40350     42.27372  -0.40269091            0  -0.33711922    167.87229 
   40400     28.25902  -0.38097885            0  -0.33714567   -144.89244 
   40450    27.039876  -0.37910761            0  -0.33716547   -184.32983 
   40500    43.117106   -0.4040427            0  -0.33716282    108.64508 
   40550    32.840949  -0.38809461            0   -0.3371543   -121.05137 
   40600     25.14482  -0.37613271            0  -0.33713003    42.483753 
   40650    30.853564  -0.38492843            0   -0.3370708    528.80195 
   40700    18.266027   -0.3654598            0  -0.33712697   -63.183443 
   40750    37.431783  -0.39520437            0  -0.33714311   -37.682176 
   40800    25.113358   -0.3761161            0  -0.33716222   -161.48423 
   40850    42.441235   -0.4029229            0  -0.33709138    240.54689 
   40900    23.461267  -0.37352242            0  -0.33713114   -271.31102 
   40950     27.18591  -0.37929001            0  -0.33712136   -186.54455 
   41000    35.184454  -0.39172242            0  -0.33714705    236.35876 
   41050    35.141332  -0.39167886            0  -0.33717038   -95.457922 
   41100    34.201996  -0.39020311            0  -0.33715165   -201.47658 
   41150     24.92589  -0.37575489            0   -0.3370918   -11.591146 
   41200    37.143786   -0.3947742            0  -0.33715966    109.62431 
   41250     34.61431  -0.39081709            0  -0.33712609    7.1511054 
   41300    27.403809   -0.3796356            0  -0.33712896    -32.00958 
   41350    18.406635  -0.36569879            0  -0.33714786    181.98722 
   41400    25.067936  -0.37604484            0  -0.33716142   -98.549091 
   41450    26.111499   -0.3776608            0  -0.33715869   -128.21616 
   41500    26.220659  -0.37781708            0  -0.33714564   -126.37716 
   41550    26.333291  -0.37800709            0  -0.33716095    39.738964 
   41600    26.383103   -0.3780963            0   -0.3371729    77.576489 
   41650    24.069398  -0.37447511            0  -0.33714054   -10.776918 
   41700    35.490917  -0.39222614            0  -0.33717541   -110.79049 
   41750    21.573929   -0.3706053            0  -0.33714151   -130.94001 
   41800    24.746347  -0.37552633            0  -0.33714174   -81.403279 
   41850    32.774623  -0.38803201            0  -0.33719458   -92.017166 
   41900    34.247962  -0.39029852            0  -0.33717576   -79.691681 
   41950    22.817197  -0.37249162            0  -0.33709937    24.435625 
   42000    21.202378  -0.37002439            0  -0.33713692   -323.64439 
   42050    31.121606  -0.38540741            0  -0.33713401   -99.299734 
   42100    33.434877  -0.38901485            0  -0.33715328    142.86892 
   42150    27.341849  -0.37955548            0  -0.33714494    -167.4409 
   42200    20.250362  -0.36855874            0  -0.33714796   -18.134118 
   42250     30.75296  -0.38488923            0  -0.33718764    188.99286 
   42300    31.196801  -0.38556704            0    -0.337177   -42.805517 
   42350    22.912941  -0.37268982            0  -0.33714906   -125.38318 
   42400    28.948551  -0.38208115            0  -0.33717842   -66.984738 
   42450    27.115339  -0.37920833            0  -0.33714914   -68.859686 
   42500    14.855663  -0.36009152            0  -0.33704858    408.70263 
   42550    28.070573   -0.3807012            0  -0.33716033   -69.665432 
   42600    21.120364  -0.36988919            0  -0.33712894    19.809625 
   42650    26.872218  -0.37881956            0  -0.33713748   -14.153384 
   42700    28.836597  -0.38187659            0  -0.33714752   -85.557418 
   42750    24.163014  -0.37463837            0  -0.33715859   -164.38693 
   42800    22.531274  -0.37208835            0   -0.3371396   -112.91027 
   42850    24.351317  -0.37493397            0  -0.33716211    28.117806 
   42900    24.917631  -0.37584042            0  -0.33719014    122.57205 
   42950    17.733052   -0.3646387            0  -0.33713258    17.891942 
   43000     30.92562  -0.38512741            0  -0.33715801     1.974833 
   43050     23.19021  -0.37310758            0  -0.33713675   -24.914305 
   43100    24.363641  -0.37494083            0  -0.33714985   -52.434583 
   43150    47.498585  -0.41080767            0  -0.33713158   -1.3559083 
   43200    26.199737  -0.37776812            0  -0.33712913   -314.00876 
   43250     39.75838  -0.39885701            0  -0.33718692   -203.20264 
   43300    35.229955  -0.39181773            0  -0.33717178    125.92979 
   43350    30.226763  -0.38397702            0  -0.33709163    276.41976 
   43400    28.773875  -0.38177146            0  -0.33713967   -125.69045 
   43450      22.8723  -0.37257502            0   -0.3370973   -85.145778 
   43500    45.281929  -0.40747286            0  -0.33723508    70.765212 
   43550    32.354526  -0.38736205            0  -0.33717624   -115.87298 
   43600    39.962145  -0.39914797            0  -0.33716182   -134.26058 
   43650    33.406413  -0.38896676            0  -0.33714935   -91.079299 
   43700    32.329378  -0.38726763            0  -0.33712083    178.54613 
   43750    28.952527    -0.382068            0  -0.33715911   -39.411612 
   43800    27.488971  -0.37977247            0  -0.33713373    123.76833 
   43850    34.050142  -0.38999583            0  -0.33717991    87.646897 
   43900    42.835761  -0.40364958            0   -0.3372061   -44.073697 
   43950    20.317075  -0.36865894            0  -0.33714468   -274.48925 
   44000    50.554337  -0.41560371            0  -0.33718778    44.057669 
   44050    30.252434  -0.38405702            0  -0.33713181   -322.00599 
   44100    30.006079  -0.38367158            0   -0.3371285   -342.04949 
   44150    44.870102  -0.40678863            0  -0.33718964   -90.369261 
   44200    30.850959  -0.38501894            0  -0.33716534    22.163326 
   44250    41.448342  -0.40147871            0  -0.33718729    108.10363 
   44300    39.362679  -0.39826723            0  -0.33721092   -76.188639 
   44350    22.562872  -0.37211361            0  -0.33711585    -8.424985 
   44400    40.875782  -0.40057455            0  -0.33717124    83.482442 
   44450    31.873579  -0.38656445            0  -0.33712465   -166.35461 
   44500     29.19042  -0.38240227            0  -0.33712437   -217.96342 
   44550     37.39973  -0.39519332            0  -0.33718178   -162.23868 
   44600    35.766078  -0.39264466            0  -0.33716712    160.11486 
   44650     44.21385  -0.40579391            0  -0.33721285    293.48121 
   44700    31.322022  -0.38576724            0  -0.33718297   -201.69868 
   44750    32.825327  -0.38805702            0  -0.33714094   -138.32621 
   44800    30.942105  -0.38515922            0  -0.33716425   -166.27825 
   44850    40.543808  -0.40014246            0  -0.33725408    244.30118 
   44900    26.925866  -0.37893781            0  -0.33717252   -23.842436 
   44950    33.588144  -0.38922051            0  -0.33712121    97.939299 
   45000     36.41054  -0.39376956            0  -0.33729238    292.66324 
   45050    22.394301  -0.37189575            0  -0.33715946   -65.314304 
   45100    34.572221   -0.3907598            0  -0.33713407    6.4882739 
   45150    30.113395  -0.38383517            0  -0.33712563   -30.392554 
   45200    37.296172  -0.39506413            0  -0.33721323    169.70729 
   45250    18.248358  -0.36543249            0  -0.33712707     237.9092 
   45300     46.02915  -0.40856513            0  -0.33716831    265.59954 
   45350    24.342624  -0.37493645            0  -0.33717807   -120.21266 
   45400    44.146327  -0.40570659            0  -0.33723027    326.84179 
   45450    22.588017  -0.37218968            0  -0.33715291    -13.79156 
   45500    37.686185  -0.39558276            0   -0.3371269    25.330041 
   45550    29.600071  -0.38303391            0  -0.33712059    -125.8262 
   45600    23.802229  -0.37402804            0  -0.33710789    50.796574 
   45650    35.534046  -0.39227348            0  -0.33715585    350.31363 
   45700    33.001317  -0.38840161            0  -0.33721255   -46.215731 
   45750     25.98297  -0.37745425            0   -0.3371515    75.137525 
   45800    32.157983   -0.3870682            0  -0.33718726     168.2852 
   45850    35.046128  -0.39154369            0  -0.33718288    202.61236 
   45900    28.735422  -0.38171731            0  -0.33714517    53.074228 
   45950    29.218629  -0.38246189            0  -0.33714024   -43.676475 
   46000    40.322995  -0.39968927            0  -0.33714339    -113.3168 
   46050    30.954736  -0.38514791            0  -0.33713335   -222.11824 
   46100    37.979479  -0.39609082            0  -0.33718003   -151.44397 
   46150    33.065669  -0.38843718            0  -0.33714831    33.565292 
   46200    31.974417  -0.38677925            0  -0.33718304    190.49255 
   46250    30.199557   -0.3839929            0  -0.33714971    18.001898 
   46300    42.666702   -0.4034052            0  -0.33722396   -43.757809 
   46350    26.427078  -0.37812787            0  -0.33713625    5.9659347 
   46400    32.151553  -0.38701827            0  -0.33714729    -126.9507 
   46450    33.757425  -0.38944978            0  -0.33708791    171.62308 
   46500    30.189445  -0.38399554            0  -0.33716804    128.75223 
   46550    19.400751   -0.3672438            0  -0.33715087   -142.49744 
   46600    26.075103  -0.37757786            0   -0.3371322   -115.22006 
   46650    46.126983  -0.40870885            0  -0.33716028    126.91775 
   46700    30.090238  -0.38386109            0  -0.33718747    156.06665 
   46750    32.971187  -0.38833477            0  -0.33719244    75.405352 
   46800    28.089811  -0.38069543            0  -0.33712471    331.76594 
   46850      30.6624  -0.38470639            0  -0.33714528   -106.00205 
   46900    36.999664  -0.39453323            0  -0.33714225   -26.871925 
   46950    25.983638  -0.37742902            0  -0.33712523    21.568595 
   47000    31.275501  -0.38566281            0   -0.3371507     -113.844 
   47050    31.075391  -0.38530805            0  -0.33710633   -47.191019 
   47100    25.772251  -0.37712642            0  -0.33715052    -135.5344 
   47150    38.019377  -0.39612625            0  -0.33715357    7.6900098 
   47200    38.893034  -0.39751948            0  -0.33719165   -157.01035 
   47250    34.269306  -0.39031186            0  -0.33715599   -63.195273 
   47300    38.287971  -0.39654937            0  -0.33716007   -76.986983 
   47350    34.039775  -0.38995528            0  -0.33715544   -302.44647 
   47400    37.686238  -0.39560192            0  -0.33714597   -245.48576 
   47450    23.298391  -0.37325336            0  -0.33711472    -152.6019 
   47500    32.835684  -0.38805232            0  -0.33712017   0.84282749 
   47550    33.328412  -0.38886804            0  -0.33717162    252.46773 
   47600    31.612768  -0.38621788            0  -0.33718263   -140.79291 
   47650    33.344888  -0.38884652            0  -0.33712454   -18.780168 
   47700    27.948608  -0.38049259            0   -0.3371409    184.09654 
   47750    38.532497   -0.3969404            0  -0.33717181    342.02135 
   47800     20.82411  -0.36941116            0  -0.33711043    1.3532651 
   47850    34.698945  -0.39099397            0  -0.33717169   -1.7603391 
   47900    30.119081    -0.383886            0  -0.33716764   -10.006306 
   47950    34.269342  -0.39027449            0  -0.33711857    14.045025 
   48000    28.170643  -0.38080521            0  -0.33710911   -233.30423 
   48050    27.025747  -0.37907831            0  -0.33715808   -55.435756 
   48100    44.426766  -0.40609482            0  -0.33718349    126.87363 
   48150    17.505186  -0.36424751            0  -0.33709483    75.758088 
   48200    34.954806  -0.39134266            0   -0.3371235   -122.01888 
   48250    37.362026  -0.39512612            0  -0.33717307   -116.96785 
   48300     32.53995  -0.38761568            0  -0.33714226    32.745728 
   48350    26.611562  -0.37841542            0  -0.33713764    204.31419 
   48400    27.183892  -0.37927694            0  -0.33711141    177.81776 
   48450    27.836329  -0.38032163            0   -0.3371441   -167.24813 
   48500    45.561552  -0.40792648            0  -0.33725497    127.38067 
   48550    36.598851  -0.39397613            0  -0.33720686     115.6958 
   48600    27.813176  -0.38031444            0  -0.33717282    3.7385975 
   48650    32.146434  -0.38702763            0   -0.3371646   -156.50769 
   48700    30.864932  -0.38499887            0  -0.33712361   -88.649183 
   48750    29.363992  -0.38269247            0  -0.33714535    49.645852 
   48800     25.56854  -0.37680024            0  -0.33714032    44.650012 
   48850    39.626401  -0.39862506            0  -0.33715969   -120.07748 
   48900    40.096918  -0.39941427            0  -0.33721907    147.66996 
   48950    38.834765  -0.39746422            0  -0.33722677    30.032226 
   49000    27.936197  -0.38048579            0  -0.33715335   -213.02225 
   49050    31.083591  -0.38537444            0  -0.33716001   -22.528522 
   49100    26.078117  -0.37758466            0  -0.33713433    42.374943 
   49150    38.234056  -0.39651676            0  -0.33721109    99.180859 
   49200    25.522085  -0.37672647            0  -0.33713861   -62.509936 
   49250    37.347286  -0.39511654            0  -0.33718635    17.430731 
   49300    32.535296  -0.38761202            0  -0.33714582    284.87448 
   49350    33.590614  -0.38924862            0  -0.33714549    112.00002 
   49400    21.204594   -0.3699568            0  -0.33706589    146.77136 
   49450    30.291706  -0.38412546            0  -0.33713934    37.291474 
   49500    37.180312  -0.39482279            0   -0.3371516    -20.97871 
   49550    23.450737  -0.37349762            0  -0.33712268    84.655965 
   49600    35.215363  -0.39176322            0  -0.33713991    50.253229 
   49650    33.567646  -0.38923574            0  -0.33716824   -13.074522 
   49700    40.497249  -0.40005175            0  -0.33723559    50.009481 
   49750    22.265627  -0.37165632            0  -0.33711962    13.191367 
   49800    36.429934  -0.39366472            0  -0.33715746    119.30912 
   49850    32.214494  -0.38709401            0  -0.33712541   -126.82691 
   49900     33.66678  -0.38938002            0  -0.33715875   -30.967838 
   49950    29.456687  -0.38283267            0  -0.33714176   -25.933456 
   50000    29.415594  -0.38275366            0  -0.33712649   0.22571313 
   50050    38.899549  -0.39752259            0  -0.33718465    174.98702 
   50100    27.552199  -0.37989344            0  -0.33715663   -91.328578 
   50150    36.702347   -0.3940731            0  -0.33714329   -100.98298 
   50200    40.911372  -0.40060688            0  -0.33714836   -260.00688 
   50250    31.026531  -0.38531637            0  -0.33719045   -184.51775 
   50300    36.871363  -0.39436222            0  -0.33717025    279.63309 
   50350    44.704439  -0.40655078            0  -0.33720875   -57.124013 
   50400    22.064095  -0.37136792            0  -0.33714383   -74.569718 
   50450    39.109271  -0.39788322            0  -0.33721998    201.28638 
   50500    33.932429  -0.38981686            0  -0.33718353    42.648298 
   50550    33.104001   -0.3885399            0  -0.33719156     49.45076 
   50600    40.531335  -0.40007673            0   -0.3372077    12.330035 
   50650    27.886332   -0.3803752            0   -0.3371201   -100.53303 
   50700    22.249949  -0.37164792            0  -0.33713554    36.531429 
   50750    47.570867  -0.41099998            0  -0.33721177     130.0489 
   50800    21.087268  -0.36984348            0  -0.33713456   -141.81423 
   50850    31.238616  -0.38560271            0  -0.33714781   -40.308129 
   50900    44.114501  -0.40558446            0   -0.3371575    67.965133 
   50950    25.019884  -0.37595339            0  -0.33714451   -207.57467 
   51000    35.296308  -0.39189414            0  -0.33714527   -94.002058 
   51050     25.18749  -0.37620243            0  -0.33713357   -97.863014 
   51100    37.488018  -0.39534151            0  -0.33719303    218.31317 
   51150    30.977889  -0.38517754            0  -0.33712707    180.99822 
   51200    30.406195  -0.38431683            0  -0.33715312   -48.574875 
   51250    43.217565  -0.40429082            0  -0.33725512    53.872255 
   51300    28.460476  -0.38128641            0  -0.33714075   -270.47212 
   51350    34.002328  -0.38989003            0  -0.33714828   -203.37047 
   51400    36.519225  -0.39378761            0  -0.33714185    134.01548 
   51450    27.765029  -0.38020408            0  -0.33713714   -22.797569 
   51500    38.513022  -0.39686826            0  -0.33712987    2.2476008 
   51550    27.555964  -0.37987247            0  -0.33712981    -239.5004 
   51600    39.044628  -0.39771367            0   -0.3371507   -274.36255 
   51650    34.883936  -0.39124123            0    -0.337132   -67.893561 
   51700    32.416351  -0.38742283            0  -0.33714112    231.59684 
   51750    30.369282  -0.38427758            0  -0.33717112    39.606969 
   51800    23.489238  -0.37359156            0  -0.33715689    164.45738 
   51850    29.995237  -0.38368068            0  -0.33715441    169.32267 
   51900    18.124731   -0.3652606            0  -0.33714694   -28.403475 
   51950    44.338423  -0.40602291            0  -0.33724861    498.95584 
   52000    17.031143  -0.36355821            0  -0.33714083    74.140016 
   52050    40.665163  -0.40029981            0  -0.33722319    249.00737 
   52100    41.142679  -0.40104612            0  -0.33722882   -30.857049 
[...]
  487550    38.608471  -0.39703825            0  -0.33715181    78.540594 
  487600     42.75457  -0.40354396            0  -0.33722642    206.59532 
  487650     22.42391  -0.37191784            0  -0.33713563   -264.49776 
  487700     29.22623  -0.38241322            0  -0.33707978    30.165701 
  487750    36.604556  -0.39394513            0  -0.33716701   -58.431495 
  487800    31.237194  -0.38564901            0  -0.33719632    94.321792 
  487850    32.865316  -0.38812998            0  -0.33715187   -184.51358 
  487900    34.791739  -0.39113768            0  -0.33717145     89.37763 
  487950     35.60083  -0.39239102            0   -0.3371698    63.317199 
  488000    23.629055  -0.37378839            0  -0.33713685   -4.8716067 
  488050    35.284032  -0.39184817            0  -0.33711834    121.75413 
  488100    25.782837  -0.37714344            0  -0.33715112   -159.23712 
  488150    33.887853   -0.3897269            0  -0.33716271   -55.207594 
  488200    30.814171  -0.38491965            0  -0.33712312   -54.594556 
  488250    26.822745  -0.37874806            0  -0.33714272   -105.03776 
  488300    32.027932  -0.38679507            0  -0.33711585    61.263644 
  488350    25.956385  -0.37739256            0  -0.33713105   -6.7100967 
  488400    32.262938  -0.38722172            0  -0.33717797   -42.019359 
  488450    33.645639  -0.38937807            0  -0.33718959   -104.81542 
  488500    37.690048  -0.39556391            0  -0.33710206    199.17533 
  488550    26.866284  -0.37880266            0  -0.33712979   -190.83286 
  488600    32.774982  -0.38799788            0   -0.3371599   -303.16183 
  488650    38.415455  -0.39675597            0  -0.33716893   -23.806375 
  488700    27.704695  -0.38011451            0  -0.33714115    124.49062 
  488750    24.055078  -0.37448055            0   -0.3371682    -38.40943 
  488800    25.737679  -0.37705949            0  -0.33713721    166.26505 
  488850    36.261626  -0.39337793            0  -0.33713173    217.70164 
  488900     27.15771  -0.37926262            0   -0.3371377    63.964164 
  488950    26.402568   -0.3780903            0  -0.33713671    -31.73926 
  489000    39.013324  -0.39768174            0  -0.33716733     62.76374 
  489050    29.377759  -0.38271805            0  -0.33714957    130.07168 
  489100    37.981332  -0.39609092            0  -0.33717725   -57.265397 
  489150    29.158997  -0.38235985            0   -0.3371307   -291.20577 
  489200    36.020898  -0.39300265            0  -0.33712985   -34.797977 
  489250    35.660339  -0.39250598            0  -0.33719246   -63.505614 
  489300    28.993403  -0.38210869            0  -0.33713639    165.99901 
  489350    25.889893  -0.37731979            0  -0.33716141   -38.379103 
  489400    37.186695  -0.39481374            0  -0.33713265   -121.69159 
  489450    33.676416  -0.38940905            0  -0.33717283     281.4158 
  489500    23.144849  -0.37302841            0  -0.33712793    79.871552 
  489550    18.200828  -0.36533403            0  -0.33710234   -171.02653 
  489600    44.147862  -0.40562227            0  -0.33714356   -68.185396 
  489650    35.160145  -0.39168701            0  -0.33714935   -64.011505 
  489700     42.78461  -0.40358166            0  -0.33721752    35.151337 
  489750    24.646197  -0.37535665            0   -0.3371274   -159.50158 
  489800    41.783227  -0.40194731            0  -0.33713644   -206.69782 
  489850    29.021054    -0.382209            0  -0.33719382    -158.0809 
  489900    36.802946  -0.39430073            0  -0.33721488    278.11414 
  489950    24.009342  -0.37437541            0    -0.337134     347.3771 
  490000    29.233832   -0.3825048            0  -0.33715957    409.30145 
  490050    28.354888  -0.38112302            0  -0.33714114    192.42043 
  490100    24.803683  -0.37561536            0  -0.33714183    9.8103751 
  490150    30.354071  -0.38422103            0  -0.33713817    17.031268 
  490200    43.451088  -0.40458204            0  -0.33718412   -50.032965 
  490250    33.807619   -0.3895811            0  -0.33714137    -76.64678 
  490300    30.384027  -0.38427885            0  -0.33714952    -164.3394 
  490350    39.033528  -0.39775377            0  -0.33720801   -210.61334 
  490400    35.101397  -0.39157163            0  -0.33712509   -67.237954 
  490450    27.529154  -0.37986957            0   -0.3371685   -165.00114 
  490500    34.503396  -0.39067038            0  -0.33715141    -94.08152 
  490550    30.785178  -0.38488412            0  -0.33713257    75.027771 
  490600    27.596419  -0.37994658            0  -0.33714118   -42.412573 
  490650    31.449254  -0.38586194            0  -0.33708032    402.34108 
  490700    23.667231  -0.37385263            0  -0.33714187   -46.946104 
  490750    39.845056  -0.39895643            0   -0.3371519   -177.75995 
  490800    27.849371  -0.38034039            0  -0.33714262   -200.15603 
  490850    27.283991    -0.379463            0   -0.3371422   -160.66281 
  490900    23.873127  -0.37414801            0  -0.33711788    106.75762 
  490950     24.08996  -0.37453152            0  -0.33716506   -87.431974 
  491000    42.045346  -0.40234427            0  -0.33712682    -11.17291 
  491050        27.54  -0.37983594            0  -0.33711805   -57.323396 
  491100    30.514307  -0.38449169            0  -0.33716028   -183.89773 
  491150    36.053642   -0.3931157            0  -0.33719211   -190.42495 
  491200    44.489565  -0.40627118            0  -0.33726244    126.05713 
  491250    27.952498  -0.38050234            0  -0.33714461    171.45463 
  491300    32.577483  -0.38765581            0  -0.33712417    109.92427 
  491350    26.554296  -0.37832068            0  -0.33713173   -114.13531 
  491400    33.098499  -0.38847168            0  -0.33713188   -137.33574 
  491450    42.066754  -0.40243595            0  -0.33718529   -7.2584451 
  491500    33.430747  -0.38903297            0  -0.33717782   -46.289562 
  491550    28.070928  -0.38073624            0  -0.33719481   -1.3760716 
  491600    39.309562  -0.39817982            0  -0.33720591    -15.98255 
  491650    25.859157  -0.37727163            0  -0.33716093     62.23332 
  491700    33.914542  -0.38978185            0  -0.33717626   -62.084062 
  491750    41.324484  -0.40127873            0  -0.33717943   -217.80533 
  491800    36.006424   -0.3930669            0  -0.33721656    225.11613 
  491850    25.835819  -0.37722443            0  -0.33714993   -20.154307 
  491900    29.113289  -0.38230445            0   -0.3371462    -160.4586 
  491950    39.949436  -0.39909725            0  -0.33713081    108.59704 
  492000     31.03484  -0.38528833            0  -0.33714952   -137.66045 
  492050    34.692235  -0.39093416            0  -0.33712228   -216.54067 
  492100    36.080914  -0.39313749            0   -0.3371716   -188.39673 
  492150    38.800921  -0.39733111            0  -0.33714616   -74.958642 
  492200    27.466416  -0.37973594            0  -0.33713219   -162.92608 
  492250    32.154853  -0.38704311            0  -0.33716702    92.760504 
  492300    42.090816  -0.40249431            0  -0.33720633    27.864817 
  492350    36.609259   -0.3940165            0  -0.33723108   -46.464527 
  492400    24.605101  -0.37529987            0  -0.33713436   -21.454662 
  492450    45.101184  -0.40714907            0  -0.33719164    91.845032 
  492500    24.156848  -0.37463336            0  -0.33716315   -40.710062 
  492550    27.501875  -0.37979694            0  -0.33713818     254.9114 
  492600    44.940532  -0.40690735            0  -0.33719911   0.99329306 
  492650    20.651926  -0.36914548            0  -0.33711183   -8.9828389 
  492700    34.944543  -0.39138773            0  -0.33718449     36.37675 
  492750    39.350213  -0.39827687            0   -0.3372399   -36.356831 
  492800    29.842143  -0.38347265            0  -0.33718385    234.43104 
  492850    31.239158  -0.38562175            0  -0.33716601    283.83148 
  492900    39.376644  -0.39831217            0   -0.3372342    113.92665 
  492950    33.137317  -0.38857165            0  -0.33717163    -29.14208 
  493000    35.297211  -0.39188571            0  -0.33713543   -131.91896 
  493050    33.349567   -0.3888507            0  -0.33712146   -54.386754 
  493100    31.274969  -0.38567832            0  -0.33716704    80.322114 
  493150    25.316333  -0.37640896            0  -0.33714025    38.032103 
  493200    29.897154  -0.38350847            0  -0.33713435   -28.671039 
  493250    26.247688  -0.37787591            0  -0.33716255   -102.27011 
  493300    24.753305   -0.3755417            0  -0.33714632   -13.571657 
  493350    20.814615  -0.36941596            0  -0.33712996   0.30661153 
  493400     29.14085  -0.38235899            0  -0.33715799    121.55303 
  493450    41.903991  -0.40215901            0  -0.33716081   -90.704414 
  493500    31.625546  -0.38624523            0  -0.33719016   -75.321244 
  493550    26.210454  -0.37780597            0  -0.33715037   -5.8525774 
  493600    32.511122  -0.38753724            0  -0.33710853    195.38499 
  493650    25.986279  -0.37747555            0  -0.33716767    261.00773 
  493700    29.126278  -0.38233251            0   -0.3371541   -8.9285611 
  493750    31.820866   -0.3864865            0  -0.33712846     244.4952 
  493800     27.27018  -0.37943327            0   -0.3371339    338.53441 
  493850    22.337444  -0.37175957            0  -0.33711147    284.65266 
  493900    34.491326   -0.3906464            0  -0.33714615   -92.016317 
  493950    34.859342  -0.39121035            0  -0.33713927   -264.01827 
  494000    42.203443  -0.40263743            0  -0.33717475    7.5150831 
  494050    33.270563  -0.38875318            0  -0.33714648    101.87212 
  494100    36.860445  -0.39434642            0  -0.33717139   -15.881468 
  494150    23.803958  -0.37404242            0  -0.33711959   -116.85994 
  494200    24.504584  -0.37517155            0  -0.33716195    135.40607 
  494250    24.306649   -0.3748386            0  -0.33713603     22.83412 
  494300    29.389128  -0.38274619            0  -0.33716007   -48.390287 
  494350    38.634787  -0.39713057            0  -0.33720331    464.88541 
  494400    29.463058  -0.38287676            0  -0.33717598    104.18453 
  494450    31.486977  -0.38599719            0  -0.33715706   -145.26293 
  494500    36.709584  -0.39418603            0  -0.33724499    8.2472428 
  494550    32.205285  -0.38709931            0    -0.337145    96.239384 
  494600    22.477085  -0.37197934            0  -0.33711465   -307.43974 
  494650     38.02309  -0.39611404            0   -0.3371356   -156.85962 
  494700    28.982154  -0.38215683            0  -0.33720198    43.272635 
  494750    22.054033  -0.37134119            0   -0.3371327    80.532059 
  494800    21.096719  -0.36985746            0  -0.33713388   -73.862005 
  494850    27.805764  -0.38031432            0  -0.33718419    23.006095 
  494900    23.514619   -0.3736191            0  -0.33714506    29.532124 
  494950    30.735417  -0.38481019            0  -0.33713582    46.393355 
  495000    20.350527  -0.36868811            0  -0.33712196   -50.067375 
  495050    26.469115  -0.37817968            0  -0.33712286    36.283283 
  495100    21.029478  -0.36976683            0  -0.33714755   -75.434631 
  495150    28.913031  -0.38200754            0  -0.33715991    174.71223 
  495200     27.52337  -0.37982442            0  -0.33713233   -98.153748 
  495250     25.80834  -0.37719119            0  -0.33715932   -126.03068 
  495300    25.849045  -0.37726034            0  -0.33716532   -120.64978 
  495350    23.665828   -0.3738988            0  -0.33719022    161.83979 
  495400    30.632379  -0.38467957            0  -0.33716503    93.924082 
  495450     23.33666  -0.37336508            0  -0.33716708    -125.0862 
  495500    24.873002  -0.37572681            0  -0.33714576   -2.9561691 
  495550    23.251786  -0.37321019            0  -0.33714384    52.856401 
  495600     34.75862  -0.39104713            0  -0.33713228   -108.62995 
  495650    14.435277   -0.3595161            0  -0.33712522   -166.95118 
  495700    17.034317  -0.36355042            0  -0.33712812    76.429454 
  495750    31.501791  -0.38599784            0  -0.33713473    71.258161 
  495800    28.945566  -0.38206063            0  -0.33716253   -35.785919 
  495850    23.942994   -0.3742771            0  -0.33713861   -49.931824 
  495900    25.455649  -0.37664637            0  -0.33716156   -84.640223 
  495950    22.943827  -0.37271055            0  -0.33712188     25.39718 
  496000    31.198553  -0.38555922            0  -0.33716647   -26.249954 
  496050    30.858979  -0.38502668            0  -0.33716065    33.140815 
  496100    17.833007  -0.36478316            0  -0.33712199   -269.22256 
  496150    37.269289  -0.39499541            0   -0.3371862    97.349155 
  496200    24.657289  -0.37540161            0  -0.33715515   -75.498575 
  496250     24.18281  -0.37465187            0  -0.33714139   -148.96446 
  496300    30.778963  -0.38490239            0  -0.33716047   -131.68072 
  496350    22.863769  -0.37257706            0  -0.33711257    70.392145 
  496400    23.542289   -0.3736602            0  -0.33714325    73.695743 
  496450    25.921107  -0.37736029            0  -0.33715349    211.96449 
  496500    22.509167  -0.37205611            0  -0.33714165   -81.567173 
  496550    30.819847  -0.38496575            0  -0.33716042    92.923498 
  496600     20.19637  -0.36846893            0   -0.3371419    129.18111 
  496650    28.132732   -0.3808056            0  -0.33716831   -116.21234 
  496700    28.458165  -0.38130264            0  -0.33716056    72.687987 
  496750    17.869648  -0.36487202            0  -0.33715402    303.26009 
  496800    13.849315  -0.35862391            0  -0.33714194    42.017981 
  496850    22.944445  -0.37270608            0  -0.33711646    283.38479 
  496900    27.001349  -0.37903435            0  -0.33715197    26.940596 
  496950    22.384544   -0.3718793            0  -0.33715815    49.273774 
  497000    32.282874  -0.38722451            0  -0.33714984   -168.41214 
  497050    16.882135  -0.36331813            0  -0.33713188   -28.735907 
  497100      25.6124  -0.37687939            0  -0.33715144    38.238659 
  497150    23.024558  -0.37284111            0  -0.33712722     182.5086 
  497200    16.525998  -0.36275303            0   -0.3371192   -43.113954 
  497250    28.360531  -0.38114272            0  -0.33715208    108.26035 
  497300    14.982082   -0.3603783            0  -0.33713926    80.281451 
  497350    30.726156   -0.3848075            0  -0.33714749   -104.89146 
  497400    24.811826  -0.37563233            0  -0.33714617    -165.7523 
  497450    18.619105  -0.36600873            0  -0.33712823   -133.04248 
  497500    25.285676  -0.37636893            0  -0.33714777    72.703588 
  497550    23.258451  -0.37325162            0  -0.33717493   -85.432919 
  497600    32.792819  -0.38801027            0  -0.33714461   -198.96806 
  497650     29.13978  -0.38233668            0  -0.33713733   -111.21233 
  497700    36.546203    -0.393809            0  -0.33712139   -23.308532 
  497750     35.31651  -0.39195012            0  -0.33716991   -53.834879 
  497800    37.485197  -0.39530839            0  -0.33716428   -202.45333 
  497850    24.212876  -0.37467135            0  -0.33711423   -104.80176 
  497900    33.226503   -0.3886558            0  -0.33711745    142.38845 
  497950    37.768549  -0.39572642            0   -0.3371428    198.43605 
  498000     21.12726  -0.36992007            0  -0.33714911   -269.77096 
  498050    38.824076  -0.39735259            0  -0.33713172   -116.09673 
  498100    29.288097  -0.38262187            0  -0.33719247    126.44985 
  498150    36.297391  -0.39349057            0   -0.3371889      33.1712 
  498200    20.319055  -0.36865676            0  -0.33713943   -147.83777 
  498250    30.511993  -0.38450034            0  -0.33717252   -121.28981 
  498300    24.930729  -0.37585213            0  -0.33718153    158.79645 
  498350    24.005765  -0.37433749            0  -0.33710162    246.28002 
  498400    42.200556   -0.4026529            0   -0.3371947    48.795572 
  498450    20.604906  -0.36904198            0  -0.33708127     -153.818 
  498500     35.24487  -0.39182097            0  -0.33715189    38.314758 
  498550    31.544479   -0.3860608            0  -0.33713148    276.87584 
  498600    26.063461  -0.37755712            0  -0.33712952    59.837552 
  498650    32.286459  -0.38728397            0  -0.33720374    153.79925 
  498700    32.490901  -0.38755566            0  -0.33715832   -71.635089 
  498750    37.115174  -0.39473223            0  -0.33716207    13.045562 
  498800    34.487569  -0.39065417            0  -0.33715976   -172.25977 
  498850    27.903309  -0.38041866            0  -0.33713723   -10.222902 
  498900    42.615562  -0.40324737            0  -0.33714544   -2.6692508 
  498950    18.751801  -0.36621704            0  -0.33713071   -279.89045 
  499000    42.939843   -0.4037505            0  -0.33714557    14.565587 
  499050    32.518748  -0.38761219            0  -0.33717165    111.09693 
  499100    17.035029   -0.3635437            0   -0.3371203    14.847805 
  499150    32.746939  -0.38789473            0  -0.33710024    200.09072 
  499200    44.624456  -0.40644477            0  -0.33722681   -160.60276 
  499250    28.313888   -0.3810549            0  -0.33713661   -272.55899 
  499300     40.18906  -0.39953964            0  -0.33720152    60.734516 
  499350    36.660626  -0.39403738            0  -0.33717228   -116.84801 
  499400    34.753228  -0.39105061            0  -0.33714412   -149.65547 
  499450    31.579922  -0.38613121            0   -0.3371469    -163.9811 
  499500    41.730185  -0.40189569            0   -0.3371671   -106.79176 
  499550    29.106185  -0.38231971            0  -0.33717248    111.01043 
  499600    29.656076  -0.38312953            0  -0.33712935    31.301007 
  499650     20.91607  -0.36956897            0   -0.3371256   -249.72144 
  499700     42.03353   -0.4023715            0  -0.33717237   -40.461194 
  499750    34.257176  -0.39030909            0  -0.33717204   -81.171483 
  499800    26.362082  -0.37803118            0  -0.33714038    56.417081 
  499850    27.204513  -0.37932826            0  -0.33713075    181.28484 
  499900    34.800408  -0.39112942            0  -0.33714975    155.67629 
  499950    32.986366  -0.38834587            0     -0.33718   -43.699277 
  500000    28.746209  -0.38173808            0  -0.33714921    -76.55167 
Loop time of 1.32877 on 1 procs for 500000 steps with 13 atoms

Performance: 162556.359 ns/day, 0.000 hours/ns, 376287.867 timesteps/s
93.2% CPU use with 1 MPI tasks x no OpenMP threads

MPI task timing breakdown:
Section |  min time  |  avg time  |  max time  |%varavg| %total
---------------------------------------------------------------
Pair    | 0.56379    | 0.56379    | 0.56379    |   0.0 | 42.43
Neigh   | 0.00028849 | 0.00028849 | 0.00028849 |   0.0 |  0.02
Comm    | 0.031302   | 0.031302   | 0.031302   |   0.0 |  2.36
Output  | 0.33161    | 0.33161    | 0.33161    |   0.0 | 24.96
Modify  | 0.33826    | 0.33826    | 0.33826    |   0.0 | 25.46
Other   |            | 0.06352    |            |       |  4.78

Nlocal:        13.0000 ave          13 max          13 min
Histogram: 1 0 0 0 0 0 0 0 0 0
Nghost:         0.00000 ave           0 max           0 min
Histogram: 1 0 0 0 0 0 0 0 0 0
Neighs:        78.0000 ave          78 max          78 min
Histogram: 1 0 0 0 0 0 0 0 0 0

Total # of neighbors = 78
Ave neighs/atom = 6.0000000
Neighbor list builds = 171
Dangerous builds = 0
unfiunfix l0
unfix frdf
unfix fpe
unfix fmsd
undump 1
undump 2
clear
Total wall time: 0:43:20
